c1108 2374184 SLURM_STEP_IDnodef 0 0 1 12 SLURM_MEM_PER_CPUnodef 61440 NUM_THREADS: ## 1
/scratch/2374184/uviqooig.5D5mGMUnUT
OMP_STACKSIZE=128m
GAUSS_PDEF=12
GAUSS_MDEF=56320MB
GAUSS_RDEF=SCF=Direct
 Entering Gaussian System, Link 0=g09.exe
 Initial command:
 /opt/cesga/easybuild-cesga/software/Core/g09/e1/l1.exe "/scratch/2374184/uviqooig.5D5mGMUnUT/Gau-29365.inp" -scrdir="/scratch/2374184/uviqooig.5D5mGMUnUT/"
 Default is to use a total of  12 processors:
                               12 via shared-memory
                                1 via Linda
 Entering Link 1 = /opt/cesga/easybuild-cesga/software/Core/g09/e1/l1.exe PID=     29392.
  
 Copyright (c) 1988,1990,1992,1993,1995,1998,2003,2009,2015,
            Gaussian, Inc.  All Rights Reserved.
  
 This is part of the Gaussian(R) 09 program.  It is based on
 the Gaussian(R) 03 system (copyright 2003, Gaussian, Inc.),
 the Gaussian(R) 98 system (copyright 1998, Gaussian, Inc.),
 the Gaussian(R) 94 system (copyright 1995, Gaussian, Inc.),
 the Gaussian 92(TM) system (copyright 1992, Gaussian, Inc.),
 the Gaussian 90(TM) system (copyright 1990, Gaussian, Inc.),
 the Gaussian 88(TM) system (copyright 1988, Gaussian, Inc.),
 the Gaussian 86(TM) system (copyright 1986, Carnegie Mellon
 University), and the Gaussian 82(TM) system (copyright 1983,
 Carnegie Mellon University). Gaussian is a federally registered
 trademark of Gaussian, Inc.
  
 This software contains proprietary and confidential information,
 including trade secrets, belonging to Gaussian, Inc.
  
 This software is provided under written license and may be
 used, copied, transmitted, or stored only in accord with that
 written license.
  
 The following legend is applicable only to US Government
 contracts under FAR:
  
                    RESTRICTED RIGHTS LEGEND
  
 Use, reproduction and disclosure by the US Government is
 subject to restrictions as set forth in subparagraphs (a)
 and (c) of the Commercial Computer Software - Restricted
 Rights clause in FAR 52.227-19.
  
 Gaussian, Inc.
 340 Quinnipiac St., Bldg. 40, Wallingford CT 06492
  
  
 ---------------------------------------------------------------
 Warning -- This program may not be used in any manner that
 competes with the business of Gaussian, Inc. or will provide
 assistance to any competitor of Gaussian, Inc.  The licensee
 of this program is prohibited from giving any competitor of
 Gaussian, Inc. access to this program.  By using this program,
 the user acknowledges that Gaussian, Inc. is engaged in the
 business of creating and licensing software in the field of
 computational chemistry and represents and warrants to the
 licensee that it is not a competitor of Gaussian, Inc. and that
 it will not use this program in any manner prohibited above.
 ---------------------------------------------------------------
  

 Cite this work as:
 Gaussian 09, Revision E.01,
 M. J. Frisch, G. W. Trucks, H. B. Schlegel, G. E. Scuseria, 
 M. A. Robb, J. R. Cheeseman, G. Scalmani, V. Barone, B. Mennucci, 
 G. A. Petersson, H. Nakatsuji, M. Caricato, X. Li, H. P. Hratchian, 
 A. F. Izmaylov, J. Bloino, G. Zheng, J. L. Sonnenberg, M. Hada, 
 M. Ehara, K. Toyota, R. Fukuda, J. Hasegawa, M. Ishida, T. Nakajima, 
 Y. Honda, O. Kitao, H. Nakai, T. Vreven, J. A. Montgomery, Jr., 
 J. E. Peralta, F. Ogliaro, M. Bearpark, J. J. Heyd, E. Brothers, 
 K. N. Kudin, V. N. Staroverov, T. Keith, R. Kobayashi, J. Normand, 
 K. Raghavachari, A. Rendell, J. C. Burant, S. S. Iyengar, J. Tomasi, 
 M. Cossi, N. Rega, J. M. Millam, M. Klene, J. E. Knox, J. B. Cross, 
 V. Bakken, C. Adamo, J. Jaramillo, R. Gomperts, R. E. Stratmann, 
 O. Yazyev, A. J. Austin, R. Cammi, C. Pomelli, J. W. Ochterski, 
 R. L. Martin, K. Morokuma, V. G. Zakrzewski, G. A. Voth, 
 P. Salvador, J. J. Dannenberg, S. Dapprich, A. D. Daniels, 
 O. Farkas, J. B. Foresman, J. V. Ortiz, J. Cioslowski, 
 and D. J. Fox, Gaussian, Inc., Wallingford CT, 2013.
 
 ******************************************
 Gaussian 09:  ES64L-G09RevE.01 30-Nov-2015
                 7-Mar-2019 
 ******************************************
 Default route: SCF=Direct
 -------------------------------------------
 # freq=roa cphf=rdfreq m062x/def2svp nosymm
 -------------------------------------------
 1/10=4,30=1,38=1,83=21/1,3;
 2/12=2,15=1,17=6,18=5,40=1/2;
 3/5=43,7=101,11=2,16=1,25=1,30=1,36=2,71=2,74=-55,140=1/1,2,3;
 4//1;
 5/5=2,38=5,98=1/2;
 8/6=4,10=90,11=11/1;
 10/13=10,15=4,31=1,49=111,72=3/2;
 11/6=3,8=1,9=11,15=111,16=1,31=1/1,2,10;
 10/6=1,31=1,49=111/2;
 6/7=2,8=2,9=2,10=2,18=1,28=1/1;
 7/8=1,10=1,25=1,30=1/1,2,3,16;
 1/10=4,30=1/3;
 99//99;
 ----------------------------
 uv-01-As10-stx.xyz roa 444nm
 ----------------------------
 Symbolic Z-matrix:
 Charge =  2 Multiplicity = 1
 C                     1.34221   1.4334   -0.90822 
 As                   -0.26236  -0.26227   2.41453 
 C                     1.35702   0.82938   0.39798 
 As                    2.59701  -1.52762   3.49691 
 C                     2.25994   0.04737   1.19188 
 As                    5.44962   0.02908   3.67987 
 C                     3.67212   0.12322   1.49541 
 As                    6.75777   2.73834   2.18447 
 As                   -1.16751   2.07569   0.19931 
 C                     1.97612   1.09007  -2.14262 
 As                   -0.40307   2.39208  -2.90711 
 C                     4.6836    1.10119   1.20472 
 As                    7.39898   3.24725  -0.89305 
 C                     5.15134   1.83716   0.06071 
 C                     3.1811    0.41718  -2.56761 
 As                    1.52259   0.44279  -4.83357 
 As                    4.60825  -0.61773  -4.75929 
 As                    7.07027   1.05709  -3.4053 
 C                     5.25145   1.47009  -1.31624 
 C                     4.56547   0.58111  -2.22074 
 C                     3.9791   -3.77722  -1.50852 
 N                     2.6889   -3.33277  -2.02451 
 C                     3.9758   -4.16027   0.00099 
 N                     4.9547   -2.69612  -1.54441 
 C                     4.31597  -4.92203  -2.51001 
 C                     1.79855  -2.72358  -1.23213 
 C                     2.49565  -3.67388  -3.45302 
 C                     2.56132  -4.1428    0.59264 
 N                     4.80313  -3.1166    0.59519 
 H                     4.44204  -5.14697   0.13727 
 C                     5.35259  -2.32819  -0.32654 
 H                     5.27273  -2.23053  -2.39246 
 C                     3.8281   -4.31911  -3.83191 
 O                     5.66536  -5.17344  -2.39536 
 O                     3.51938  -6.02009  -2.27469 
 N                     1.83796  -2.99182   0.07409 
 N                     0.87893  -1.909    -1.73869 
 H                     2.27733  -2.77828  -4.04878 
 H                     1.66429  -4.38754  -3.53581 
 C                     1.77316  -5.45075   0.4 
 H                     2.64289  -3.99703   1.68147 
 H                     4.87795  -2.93726   1.59219 
 N                     6.20245  -1.34764  -0.07714 
 H                     4.55457  -3.5737   -4.19035 
 H                     3.71145  -5.09616  -4.59664 
 H                     5.89469  -5.93812  -2.94245 
 H                     3.77226  -6.50508  -1.45727 
 H                     1.41039  -2.33915   0.73766 
 H                     1.06027  -1.4529   -2.63075 
 H                     0.18999  -1.4789   -1.12818 
 O                     2.1485   -6.40158   1.37813 
 H                     1.89388  -5.85383  -0.61576 
 H                     0.7124   -5.23815   0.58191 
 H                     6.36586  -1.04788   0.88037 
 H                     6.43479  -0.68816  -0.81593 
 C                     3.07753  -7.33326   1.06797 
 O                     3.77224  -7.27326   0.06879 
 N                     3.14952  -8.28479   1.99932 
 H                     3.8097   -9.04095   1.86741 
 H                     2.49698  -8.30867   2.77242 
 C                     0.04012   0.91171   1.0249 
 C                     0.10775   2.18963  -1.1356 
 C                     1.10216   1.35074  -3.2776 
 C                     1.54139  -0.74305   2.18293 
 C                     4.0176   -0.65521   2.67167 
 C                     5.5698    1.29973   2.34311 
 C                     6.17173   2.81769   0.42951 
 C                     6.48472   1.9726   -1.91242 
 C                     5.45377   0.10181  -3.26516 
 C                     3.02257  -0.17263  -3.88368 
 
 Using perturbation frequencies:    0.102620

 GradGradGradGradGradGradGradGradGradGradGradGradGradGradGradGradGradGrad
 Berny optimization.
 Initialization pass.
 Trust Radius=3.00D-01 FncErr=1.00D-07 GrdErr=1.00D-07
 Number of steps in this run=      2 maximum allowed number of steps=      2.
 GradGradGradGradGradGradGradGradGradGradGradGradGradGradGradGradGradGrad

 Symmetry turned off by external request.
 Stoichiometry    C30H19As10N7O4(2+)
 Framework group  C1[X(C30H19As10N7O4)]
 Deg. of freedom   204
 Full point group                 C1      NOp   1
                          Input orientation:                          
 ---------------------------------------------------------------------
 Center     Atomic      Atomic             Coordinates (Angstroms)
 Number     Number       Type             X           Y           Z
 ---------------------------------------------------------------------
      1          6           0        1.342211    1.433399   -0.908219
      2         33           0       -0.262364   -0.262270    2.414532
      3          6           0        1.357020    0.829378    0.397975
      4         33           0        2.597006   -1.527616    3.496910
      5          6           0        2.259941    0.047371    1.191883
      6         33           0        5.449617    0.029077    3.679871
      7          6           0        3.672121    0.123218    1.495412
      8         33           0        6.757767    2.738343    2.184472
      9         33           0       -1.167509    2.075688    0.199310
     10          6           0        1.976121    1.090069   -2.142623
     11         33           0       -0.403065    2.392079   -2.907106
     12          6           0        4.683596    1.101186    1.204722
     13         33           0        7.398980    3.247252   -0.893051
     14          6           0        5.151339    1.837163    0.060707
     15          6           0        3.181101    0.417177   -2.567612
     16         33           0        1.522592    0.442788   -4.833565
     17         33           0        4.608250   -0.617729   -4.759285
     18         33           0        7.070270    1.057094   -3.405296
     19          6           0        5.251454    1.470085   -1.316242
     20          6           0        4.565470    0.581108   -2.220745
     21          6           0        3.979101   -3.777224   -1.508523
     22          7           0        2.688896   -3.332769   -2.024511
     23          6           0        3.975803   -4.160269    0.000987
     24          7           0        4.954702   -2.696124   -1.544414
     25          6           0        4.315968   -4.922029   -2.510005
     26          6           0        1.798546   -2.723576   -1.232131
     27          6           0        2.495647   -3.673883   -3.453018
     28          6           0        2.561322   -4.142796    0.592640
     29          7           0        4.803130   -3.116596    0.595190
     30          1           0        4.442042   -5.146967    0.137272
     31          6           0        5.352589   -2.328188   -0.326536
     32          1           0        5.272728   -2.230528   -2.392458
     33          6           0        3.828098   -4.319109   -3.831907
     34          8           0        5.665357   -5.173439   -2.395360
     35          8           0        3.519375   -6.020089   -2.274693
     36          7           0        1.837960   -2.991815    0.074091
     37          7           0        0.878929   -1.909003   -1.738685
     38          1           0        2.277330   -2.778283   -4.048777
     39          1           0        1.664294   -4.387538   -3.535805
     40          6           0        1.773163   -5.450746    0.400003
     41          1           0        2.642892   -3.997025    1.681469
     42          1           0        4.877950   -2.937261    1.592187
     43          7           0        6.202447   -1.347636   -0.077138
     44          1           0        4.554566   -3.573695   -4.190349
     45          1           0        3.711447   -5.096156   -4.596640
     46          1           0        5.894688   -5.938117   -2.942445
     47          1           0        3.772259   -6.505080   -1.457267
     48          1           0        1.410386   -2.339149    0.737659
     49          1           0        1.060272   -1.452895   -2.630750
     50          1           0        0.189985   -1.478899   -1.128175
     51          8           0        2.148500   -6.401579    1.378134
     52          1           0        1.893883   -5.853827   -0.615762
     53          1           0        0.712395   -5.238155    0.581905
     54          1           0        6.365856   -1.047878    0.880365
     55          1           0        6.434794   -0.688161   -0.815926
     56          6           0        3.077527   -7.333262    1.067969
     57          8           0        3.772243   -7.273261    0.068786
     58          7           0        3.149520   -8.284788    1.999320
     59          1           0        3.809699   -9.040950    1.867405
     60          1           0        2.496980   -8.308673    2.772422
     61          6           0        0.040124    0.911707    1.024905
     62          6           0        0.107746    2.189630   -1.135596
     63          6           0        1.102162    1.350735   -3.277598
     64          6           0        1.541387   -0.743053    2.182931
     65          6           0        4.017601   -0.655205    2.671671
     66          6           0        5.569796    1.299728    2.343112
     67          6           0        6.171730    2.817687    0.429514
     68          6           0        6.484715    1.972603   -1.912422
     69          6           0        5.453770    0.101810   -3.265155
     70          6           0        3.022571   -0.172626   -3.883675
 ---------------------------------------------------------------------
 Rotational constants (GHZ):      0.0286803      0.0269168      0.0259425
 Standard basis: def2SVP (5D, 7F)
   989 basis functions,  1958 primitive gaussians,  1060 cartesian basis functions
   304 alpha electrons      304 beta electrons
       nuclear repulsion energy     18169.1520522577 Hartrees.
 NAtoms=   70 NActive=   70 NUniq=   70 SFac= 1.00D+00 NAtFMM=   60 NAOKFM=T Big=T
 Integral buffers will be    131072 words long.
 Raffenetti 2 integral format.
 Two-electron integral symmetry is turned off.
 One-electron integrals computed using PRISM.
   1 Symmetry operations used in ECPInt.
 ECPInt:  NShTT=   89676 NPrTT=  394818 LenC2=   70778 LenP2D=  180933.
 LDataN:  DoStor=T MaxTD1= 4 Len=   56
 NBasis=   989 RedAO= T EigKep=  2.51D-04  NBF=   989
 NBsUse=   989 1.00D-06 EigRej= -1.00D+00 NBFU=   989
 ExpMin= 9.14D-02 ExpMax= 1.00D+05 ExpMxC= 1.50D+04 IAcc=2 IRadAn=         4 AccDes= 0.00D+00
 Harris functional with IExCor= 1009 and IRadAn=       4 diagonalized for initial guess.
 HarFok:  IExCor= 1009 AccDes= 0.00D+00 IRadAn=         4 IDoV= 1 UseB2=F ITyADJ=14
 ICtDFT=  3500011 ScaDFX=  1.000000  1.000000  1.000000  1.000000
 FoFCou: FMM=F IPFlag=           0 FMFlag=      100000 FMFlg1=        2001
         NFxFlg=           0 DoJE=T BraDBF=F KetDBF=T FulRan=T
         wScrn=  0.000000 ICntrl=     500 IOpCl=  0 I1Cent=   200000004 NGrid=           0
         NMat0=    1 NMatS0=      1 NMatT0=    0 NMatD0=    1 NMtDS0=    0 NMtDT0=    0
 Symmetry not used in FoFCou.
 Requested convergence on RMS density matrix=1.00D-08 within 128 cycles.
 Requested convergence on MAX density matrix=1.00D-06.
 Requested convergence on             energy=1.00D-06.
 No special actions if energy rises.
 Integral accuracy reduced to 1.0D-05 until final iterations.
 Initial convergence to 1.0D-05 achieved.  Increase integral accuracy.
 SCF Done:  E(RM062X) =  -24192.3293393     A.U. after   21 cycles
            NFock= 21  Conv=0.87D-08     -V/T= 2.0015
 DoSCS=F DFT=T ScalE2(SS,OS)=  1.000000  1.000000
 Range of M.O.s used for correlation:     1   989
 NBasis=   989 NAE=   304 NBE=   304 NFC=     0 NFV=     0
 NROrb=    989 NOA=   304 NOB=   304 NVA=   685 NVB=   685

 **** Warning!!: The smallest alpha delta epsilon is  0.98991275D-01

          Differentiating once with respect to electric field.
                with respect to dipole field.
                with respect to quadrupole field.
          Differentiating once with respect to magnetic field using GIAOs.
          Electric field/nuclear overlap derivatives assumed to be zero.
 FoFCou: FMM=F IPFlag=           0 FMFlag=      100000 FMFlg1=        2001
         NFxFlg=           0 DoJE=F BraDBF=F KetDBF=T FulRan=T
         wScrn=  0.000000 ICntrl=    6100 IOpCl=  0 I1Cent=           7 NGrid=          70
         NMat0=    1 NMatS0=      1 NMatT0=    0 NMatD0=    1 NMtDS0=    0 NMtDT0=    0
 Symmetry not used in FoFCou.
   1 Symmetry operations used in ECPInt.
 ECPInt:  NShTT=   89676 NPrTT=  394818 LenC2=   89677 LenP2D=  394818.
 LDataN:  DoStor=T MaxTD1= 5 Len=  102
 FoFJK:  IHMeth= 1 ICntrl=    6127 DoSepK=F KAlg= 0 I1Cent=   0 FoldK=F
 IRaf=         1 NMat=   1 IRICut=       1 DoRegI=T DoRafI=F ISym2E= 0.
 CalDSu exits because no D1Ps are significant.
          There are    12 degrees of freedom in the 1st order CPHF.  IDoFFX=0 NUNeed=    12.
     11 vectors produced by pass  0 Test12= 3.47D-12 8.33D-09 XBig12= 1.00D+00 8.64D-01.
 AX will form    11 AO Fock derivatives at one time.
     11 vectors produced by pass  1 Test12= 3.47D-12 8.33D-09 XBig12= 1.00D+00 3.39D-01.
     11 vectors produced by pass  2 Test12= 3.47D-12 8.33D-09 XBig12= 1.00D+00 4.06D-01.
     11 vectors produced by pass  3 Test12= 3.47D-12 8.33D-09 XBig12= 8.55D-01 4.21D-01.
     11 vectors produced by pass  4 Test12= 3.47D-12 8.33D-09 XBig12= 3.53D-01 1.36D-01.
     11 vectors produced by pass  5 Test12= 3.47D-12 8.33D-09 XBig12= 1.58D-01 8.76D-02.
     11 vectors produced by pass  6 Test12= 3.47D-12 8.33D-09 XBig12= 4.45D-02 4.41D-02.
     11 vectors produced by pass  7 Test12= 3.47D-12 8.33D-09 XBig12= 1.30D-02 2.15D-02.
     11 vectors produced by pass  8 Test12= 3.47D-12 8.33D-09 XBig12= 3.52D-03 9.62D-03.
     11 vectors produced by pass  9 Test12= 3.47D-12 8.33D-09 XBig12= 9.82D-04 6.22D-03.
     11 vectors produced by pass 10 Test12= 3.47D-12 8.33D-09 XBig12= 2.26D-04 3.18D-03.
     11 vectors produced by pass 11 Test12= 3.47D-12 8.33D-09 XBig12= 4.88D-05 1.31D-03.
     11 vectors produced by pass 12 Test12= 3.47D-12 8.33D-09 XBig12= 1.22D-05 6.22D-04.
     11 vectors produced by pass 13 Test12= 3.47D-12 8.33D-09 XBig12= 2.20D-06 2.28D-04.
     11 vectors produced by pass 14 Test12= 3.47D-12 8.33D-09 XBig12= 2.74D-07 9.02D-05.
     11 vectors produced by pass 15 Test12= 3.47D-12 8.33D-09 XBig12= 4.29D-08 4.20D-05.
     11 vectors produced by pass 16 Test12= 3.47D-12 8.33D-09 XBig12= 6.73D-09 1.41D-05.
     11 vectors produced by pass 17 Test12= 3.47D-12 8.33D-09 XBig12= 7.80D-10 4.01D-06.
     11 vectors produced by pass 18 Test12= 3.47D-12 8.33D-09 XBig12= 8.78D-11 1.46D-06.
     11 vectors produced by pass 19 Test12= 3.47D-12 8.33D-09 XBig12= 8.76D-12 4.37D-07.
     11 vectors produced by pass 20 Test12= 3.47D-12 8.33D-09 XBig12= 6.74D-13 1.23D-07.
      7 vectors produced by pass 21 Test12= 3.47D-12 8.33D-09 XBig12= 5.36D-14 3.42D-08.
      1 vectors produced by pass 22 Test12= 3.47D-12 8.33D-09 XBig12= 4.59D-14 1.35D-08.
 InvSVY:  IOpt=1 It=  1 EMax= 7.16D-12
 Solved reduced A of dimension   239 with    12 vectors.
 Isotropic polarizability for W=    0.102620      236.75 Bohr**3.
 Dipole-magnetic dipole polarizability for W=    0.102620:
                 1             2             3 
      1  -0.139832D+03 -0.134939D+03 -0.178844D+04
      2  -0.218589D+04 -0.623107D+03  0.213103D+04
      3   0.163745D+04 -0.137700D+04  0.236872D+03
 DQ contribution to OR G for W=    0.102620:
                 1             2             3 
      1   0.159407D+04 -0.268746D+04  0.251782D+04
      2  -0.495716D+03 -0.538356D+03  0.183935D+04
      3  -0.879988D+04 -0.486862D+03 -0.105572D+04
 Optical Rotation G' tensor for W=    0.102620:
                 1             2             3 
      1   0.205401D+03  0.182310D+03 -0.747510D+03
      2   0.182310D+03 -0.860693D+02 -0.194470D+02
      3  -0.747510D+03 -0.194470D+02 -0.645399D+03
 OR G Eigenvalues: -1085.7727  -117.2448   676.9499  Iso=   175.3558
 Eigenvectors:
   (1)   0.507588  -0.075870   0.858253
   (2)  -0.147979   0.973637   0.173588
   (3)   0.848797   0.215114  -0.482980
 w=    0.102620 a.u., Optical Rotation Beta=    175.3558 au.
 Molar Mass =   1290.7406 grams/mole, [Alpha] ( 4440.0 A) =     9250.45 deg.
 End of Minotr F.D. properties on file   721 Mask=       B NFrqRd=     1 NDeriv=     1 ND12= 1 LenFil=      39:
 Frequencies=    0.102620
 Property number 1 -- Alpha(-w,w) frequency  1    0.102620:
                 1             2             3 
      1  -0.750592D+03 -0.230304D+03 -0.383172D+03
      2  -0.230304D+03  0.527920D+03 -0.149813D+03
      3  -0.383172D+03 -0.149813D+03  0.932912D+03
 Property number 2 -- FD Optical Rotation Tensor frequency  1    0.102620:
                 1             2             3 
      1  -0.139832D+03 -0.134939D+03 -0.178844D+04
      2  -0.218589D+04 -0.623107D+03  0.213103D+04
      3   0.163745D+04 -0.137700D+04  0.236872D+03
 Property number 4 -- D-Q polarizability frequency  1    0.102620:
                 1             2             3 
      1  -0.581941D+04 -0.474505D+03 -0.260896D+04
      2   0.163660D+04 -0.684261D+03  0.206926D+04
      3   0.418281D+04  0.115877D+04  0.539701D+03
      4  -0.927439D+04  0.212346D+04 -0.212840D+04
      5  -0.211325D+04 -0.534327D+03  0.602216D+04
      6  -0.159004D+04 -0.618197D+03 -0.135906D+04
 End of Minotr F.D. properties file   722 does not exist.
 End of Minotr F.D. properties file   788 does not exist.
   1 Symmetry operations used in ECPInt.
 ECPInt:  NShTT=   89676 NPrTT=  394818 LenC2=   70778 LenP2D=  180933.
 LDataN:  DoStor=T MaxTD1= 5 Len=  102
 Number of processors reduced to   7 by ecpmxn.
 Symmetrizing basis deriv contribution to polar:
 IMax=3 JMax=2 DiffMx= 0.00D+00
 G2DrvN: will do    71 centers at a time, making    1 passes.
 PxScal for G2LodP:  IOpCl= 0 ISclPx=1 IMOff=     1 NMtTot=    25 NTT=  489555 ScalPx= 2.09D+02
 Calling FoFCou, ICntrl=  3107 FMM=T I1Cent=   0 AccDes= 0.00D+00.
 End of G2Drv F.D. properties on file   721 Mask=       B NFrqRd=     1 NDeriv=     1 ND12= 1 LenFil=      39:
 Frequencies=    0.102620
 Property number 1 -- Alpha(-w,w) frequency  1    0.102620:
                 1             2             3 
      1  -0.750592D+03 -0.230304D+03 -0.383172D+03
      2  -0.230304D+03  0.527920D+03 -0.149813D+03
      3  -0.383172D+03 -0.149813D+03  0.932912D+03
 Property number 2 -- FD Optical Rotation Tensor frequency  1    0.102620:
                 1             2             3 
      1  -0.139832D+03 -0.134939D+03 -0.178844D+04
      2  -0.218589D+04 -0.623107D+03  0.213103D+04
      3   0.163745D+04 -0.137700D+04  0.236872D+03
 Property number 4 -- D-Q polarizability frequency  1    0.102620:
                 1             2             3 
      1  -0.581941D+04 -0.474505D+03 -0.260896D+04
      2   0.163660D+04 -0.684261D+03  0.206926D+04
      3   0.418281D+04  0.115877D+04  0.539701D+03
      4  -0.927439D+04  0.212346D+04 -0.212840D+04
      5  -0.211325D+04 -0.534327D+03  0.602216D+04
      6  -0.159004D+04 -0.618197D+03 -0.135906D+04
 End of G2Drv F.D. properties on file   722 Mask=       B NFrqRd=     1 NDeriv=   210 ND12= 1 LenFil=    7563:
 Frequencies=    0.102620
 Property number 1 -- Alpha(-w,w) derivatives, frequency  1    0.102620:
                 1             2             3             4             5 
      1  -0.389001D+03  0.162096D+03 -0.125321D+03  0.185855D+04 -0.165858D+02
      2   0.162096D+03  0.374506D+02  0.365643D+02 -0.165858D+02 -0.230336D+02
      3  -0.125321D+03  0.365643D+02 -0.302800D+03 -0.148596D+03 -0.112592D+03
                 6             7             8             9            10 
      1  -0.148596D+03 -0.144316D+03 -0.739488D+02  0.641697D+03 -0.469307D+03
      2  -0.112592D+03 -0.739488D+02 -0.133143D+02  0.686274D+02 -0.452867D+02
      3   0.774315D+03  0.641697D+03  0.686274D+02  0.265445D+03 -0.423929D+03
                11            12            13            14            15 
      1  -0.452867D+02 -0.423929D+03 -0.146054D+04 -0.172532D+03  0.517882D+02
      2  -0.874228D+01  0.127205D+02 -0.172532D+03 -0.232826D+02 -0.453072D+02
      3   0.127205D+02 -0.382946D+03  0.517882D+02 -0.453072D+02  0.561979D+03
                16            17            18            19            20 
      1  -0.924864D+01 -0.141751D+03  0.142621D+03  0.912970D+02  0.834809D+02
      2  -0.141751D+03 -0.551073D+02  0.110253D+03  0.834809D+02  0.925643D+01
      3   0.142621D+03  0.110253D+03 -0.876185D+03  0.399419D+03  0.150170D+03
                21            22            23            24            25 
      1   0.399419D+03  0.216951D+03  0.428344D+02 -0.147948D+03  0.983724D+03
      2   0.150170D+03  0.428344D+02  0.128608D+02 -0.102647D+03  0.113283D+03
      3  -0.103097D+04 -0.147948D+03 -0.102647D+03  0.729938D+03 -0.979594D+02
                26            27            28            29            30 
      1   0.113283D+03 -0.979594D+02  0.462811D+03  0.212759D+03 -0.910185D+03
      2   0.131446D+02 -0.190559D+02  0.212759D+03  0.432448D+02 -0.831702D+02
      3  -0.190559D+02  0.224552D+03 -0.910185D+03 -0.831702D+02 -0.311241D+03
                31            32            33            34            35 
      1  -0.159851D+04 -0.236018D+03  0.282527D+00  0.415125D+03  0.883851D+02
      2  -0.236018D+03 -0.516234D+02  0.128714D+03  0.883851D+02  0.416152D+02
      3   0.282527D+00  0.128714D+03 -0.713243D+03 -0.209508D+03 -0.729432D+02
                36            37            38            39            40 
      1  -0.209508D+03 -0.113164D+04 -0.793285D+02 -0.776442D+02 -0.373422D+03
      2  -0.729432D+02 -0.793285D+02  0.793973D+01 -0.182752D+02 -0.182791D+03
      3   0.233814D+03 -0.776442D+02 -0.182752D+02  0.399647D+03  0.367323D+03
                41            42            43            44            45 
      1  -0.182791D+03  0.367323D+03  0.289906D+02 -0.918002D+02  0.139072D+01
      2  -0.556961D+02  0.178496D+03 -0.918002D+02 -0.154326D+02 -0.106361D+03
      3   0.178496D+03 -0.762732D+03  0.139072D+01 -0.106361D+03  0.844113D+03
                46            47            48            49            50 
      1   0.121787D+04  0.223845D+03 -0.240424D+03 -0.120086D+04 -0.172155D+03
      2   0.223845D+03  0.432647D+02 -0.125568D+03 -0.172155D+03 -0.216548D+02
      3  -0.240424D+03 -0.125568D+03  0.697488D+03 -0.521211D+03 -0.150162D+03
                51            52            53            54            55 
      1  -0.521211D+03  0.282164D+03  0.157946D+03  0.711737D+02  0.101089D+04
      2  -0.150162D+03  0.157946D+03  0.347170D+02  0.904832D+02  0.842933D+02
      3   0.674390D+03  0.711737D+02  0.904832D+02 -0.669431D+03  0.353539D+03
                56            57            58            59            60 
      1   0.842933D+02  0.353539D+03  0.158388D+03  0.138622D+03  0.368686D+03
      2  -0.120902D+02  0.815377D+02  0.138622D+03  0.213569D+02  0.198899D+03
      3   0.815377D+02 -0.461598D+03  0.368686D+03  0.198899D+03 -0.105096D+04
                61            62            63            64            65 
      1   0.738478D+03  0.182641D+03 -0.237623D+03 -0.496374D+03 -0.134924D+03
      2   0.182641D+03  0.396606D+02 -0.763983D+02 -0.134924D+03 -0.702294D+01
      3  -0.237623D+03 -0.763983D+02  0.423254D+03 -0.193193D+03 -0.198334D+02
                66            67            68            69            70 
      1  -0.193193D+03 -0.184802D+04 -0.254868D+03  0.457407D+02  0.939846D+03
      2  -0.198334D+02 -0.254868D+03 -0.433577D+02 -0.141749D+02  0.310621D+03
      3  -0.100181D+03  0.457407D+02 -0.141749D+02  0.243904D+03 -0.509243D+03
                71            72            73            74            75 
      1   0.310621D+03 -0.509243D+03  0.665034D+03  0.900129D+02 -0.313149D+03
      2   0.629175D+02 -0.144869D+02  0.900129D+02 -0.145396D+02 -0.620224D+02
      3  -0.144869D+02 -0.510575D+03 -0.313149D+03 -0.620224D+02  0.133366D+03
                76            77            78            79            80 
      1  -0.131055D+04 -0.170245D+03 -0.339693D+03  0.771919D+03 -0.102405D+03
      2  -0.170245D+03 -0.413638D+02 -0.588124D+02 -0.102405D+03 -0.546490D+02
      3  -0.339693D+03 -0.588124D+02  0.146338D+03  0.765230D+03  0.103719D+03
                81            82            83            84            85 
      1   0.765230D+03  0.313843D+03  0.807838D+02  0.306500D+03 -0.163735D+03
      2   0.103719D+03  0.807838D+02  0.844326D+01  0.864277D+02  0.133846D+02
      3  -0.392196D+03  0.306500D+03  0.864277D+02 -0.831599D+03 -0.269191D+03
                86            87            88            89            90 
      1   0.133846D+02 -0.269191D+03 -0.761717D+03 -0.176602D+02 -0.512427D+02
      2   0.967258D+00 -0.604932D+02 -0.176602D+02 -0.599043D+01  0.783610D+02
      3  -0.604932D+02  0.696766D+03 -0.512427D+02  0.783610D+02 -0.703367D+03
                91            92            93            94            95 
      1   0.103118D+04  0.253941D+02  0.198491D+01 -0.127383D+04 -0.202717D+03
      2   0.253941D+02 -0.411404D+02 -0.183230D+01 -0.202717D+03 -0.524848D+02
      3   0.198491D+01 -0.183230D+01 -0.752166D+02 -0.200739D+02 -0.183258D+02
                96            97            98            99           100 
      1  -0.200739D+02 -0.817870D+03 -0.388087D+02  0.707765D+03 -0.722830D+03
      2  -0.183258D+02 -0.388087D+02  0.333591D+01  0.504162D+02 -0.870844D+02
      3   0.183273D+03  0.707765D+03  0.504162D+02  0.702848D+03 -0.334490D+03
               101           102           103           104           105 
      1  -0.870844D+02 -0.334490D+03 -0.812728D+02 -0.465655D+02 -0.346697D+03
      2   0.146505D+01 -0.911512D+02 -0.465655D+02 -0.550679D+00 -0.146744D+03
      3  -0.911512D+02  0.643160D+03 -0.346697D+03 -0.146744D+03  0.930164D+03
               106           107           108           109           110 
      1   0.637044D+03  0.803980D+02 -0.789078D+01 -0.491363D+03 -0.117717D+03
      2   0.803980D+02  0.205308D+02 -0.825862D+02 -0.117717D+03  0.204699D+00
      3  -0.789078D+01 -0.825862D+02  0.803234D+03  0.466080D+03  0.735643D+02
               111           112           113           114           115 
      1   0.466080D+03 -0.134542D+04 -0.130587D+03 -0.276525D+03 -0.101025D+04
      2   0.735643D+02 -0.130587D+03 -0.229863D+02 -0.403778D+02 -0.228733D+03
      3  -0.142096D+03 -0.276525D+03 -0.403778D+02  0.738889D+02 -0.957361D+03
               116           117           118           119           120 
      1  -0.228733D+03 -0.957361D+03 -0.238741D+03 -0.269428D+02  0.175597D+03
      2  -0.353103D+02 -0.172157D+03 -0.269428D+02 -0.138886D+01  0.618218D+01
      3  -0.172157D+03  0.382337D+03  0.175597D+03  0.618218D+01  0.145584D+03
               121           122           123           124           125 
      1   0.206835D+04  0.541238D+03  0.160052D+03  0.587973D+03  0.170416D+03
      2   0.541238D+03  0.117388D+03 -0.260819D+02  0.170416D+03  0.404833D+02
      3   0.160052D+03 -0.260819D+02  0.956286D+03 -0.667792D+03 -0.962561D+02
               126           127           128           129           130 
      1  -0.667792D+03 -0.109634D+04 -0.761688D+02 -0.478133D+03 -0.170551D+03
      2  -0.962561D+02 -0.761688D+02  0.934039D+01 -0.830590D+02 -0.170330D+03
      3  -0.370719D+02 -0.478133D+03 -0.830590D+02  0.525749D+03 -0.272309D+00
               131           132           133           134           135 
      1  -0.170330D+03 -0.272309D+00 -0.830593D+03 -0.319620D+02  0.228944D+03
      2  -0.299757D+02 -0.260754D+02 -0.319620D+02  0.134053D+02  0.559400D+02
      3  -0.260754D+02 -0.853329D+03  0.228944D+03  0.559400D+02 -0.654556D+03
               136           137           138           139           140 
      1  -0.899637D+03 -0.183934D+03  0.259438D+03 -0.116370D+04 -0.123496D+03
      2  -0.183934D+03 -0.295686D+02  0.341268D+02 -0.123496D+03 -0.197088D+02
      3   0.259438D+03  0.341268D+02 -0.870855D+03 -0.370568D+03 -0.689308D+02
               141           142           143           144           145 
      1  -0.370568D+03 -0.555175D+03  0.412589D+02 -0.725247D+02 -0.204165D+03
      2  -0.689308D+02  0.412589D+02  0.256930D+02 -0.290330D+02 -0.441824D+01
      3   0.376444D+03 -0.725247D+02 -0.290330D+02  0.557279D+03  0.104022D+04
               146           147           148           149           150 
      1  -0.441824D+01  0.104022D+04 -0.136149D+04 -0.166898D+03  0.214004D+03
      2   0.774345D+01  0.154865D+03 -0.166898D+03 -0.146948D+02 -0.440663D+01
      3   0.154865D+03  0.190541D+03  0.214004D+03 -0.440663D+01 -0.563598D+03
               151           152           153           154           155 
      1  -0.422248D+03 -0.545904D+02  0.368048D+03  0.937311D+03  0.164455D+03
      2  -0.545904D+02 -0.162491D+02  0.123384D+02  0.164455D+03  0.245372D+02
      3   0.368048D+03  0.123384D+02 -0.217349D+03  0.504234D+03  0.999874D+02
               156           157           158           159           160 
      1   0.504234D+03 -0.943747D+03 -0.147704D+03  0.172244D+03 -0.907859D+02
      2   0.999874D+02 -0.147704D+03 -0.295662D+02 -0.285566D+02 -0.128331D+03
      3   0.227985D+03  0.172244D+03 -0.285566D+02  0.684634D+03 -0.737883D+02
               161           162           163           164           165 
      1  -0.128331D+03 -0.737883D+02 -0.113255D+03  0.906414D+01 -0.407942D+03
      2  -0.366482D+02 -0.757692D+02  0.906414D+01  0.204749D+02 -0.124731D+03
      3  -0.757692D+02  0.911122D+03 -0.407942D+03 -0.124731D+03  0.806000D+03
               166           167           168           169           170 
      1  -0.167507D+03 -0.927084D+02 -0.299698D+03 -0.798366D+03 -0.123376D+03
      2  -0.927084D+02 -0.174464D+02 -0.971977D+02 -0.123376D+03 -0.244567D+02
      3  -0.299698D+03 -0.971977D+02  0.986468D+03  0.214265D+02  0.256916D+02
               171           172           173           174           175 
      1   0.214265D+02  0.140880D+04  0.165593D+03  0.167077D+03  0.301385D+03
      2   0.256916D+02  0.165593D+03  0.600458D+01  0.262429D+02  0.231077D+03
      3  -0.218841D+03  0.167077D+03  0.262429D+02 -0.858431D+02  0.349786D+03
               176           177           178           179           180 
      1   0.231077D+03  0.349786D+03  0.285399D+02 -0.114561D+02  0.464920D+02
      2   0.610943D+02  0.690155D+02 -0.114561D+02 -0.523210D+01  0.501918D+02
      3   0.690155D+02 -0.682523D+03  0.464920D+02  0.501918D+02 -0.867399D+03
               181           182           183           184           185 
      1   0.622206D+01 -0.121455D+02  0.553316D+01 -0.110623D+02 -0.196874D+01
      2  -0.121455D+02 -0.908491D+00 -0.147498D+01 -0.196874D+01 -0.112777D+02
      3   0.553316D+01 -0.147498D+01  0.134189D+01 -0.345015D+00  0.168024D+01
               186           187           188           189           190 
      1  -0.345015D+00 -0.321024D+01 -0.511585D+01 -0.462218D+01 -0.380240D+02
      2   0.168024D+01 -0.511585D+01  0.278925D+01  0.264597D+00  0.452352D+01
      3  -0.372157D+01 -0.462218D+01  0.264597D+00  0.331573D+01  0.116250D+02
               191           192           193           194           195 
      1   0.452352D+01  0.116250D+02 -0.342419D+02 -0.998107D+01  0.401391D+01
      2  -0.205537D+01 -0.378823D+00 -0.998107D+01  0.102417D+01  0.348811D+01
      3  -0.378823D+00 -0.902365D+01  0.401391D+01  0.348811D+01 -0.273276D+02
               196           197           198           199           200 
      1  -0.248137D+01 -0.347768D+01 -0.186156D+02  0.257708D+02 -0.721774D+01
      2  -0.347768D+01  0.363744D+01  0.396733D+01 -0.721774D+01 -0.894139D+01
      3  -0.186156D+02  0.396733D+01  0.130038D+02  0.305806D+01 -0.386944D+01
               201           202           203           204           205 
      1   0.305806D+01 -0.540891D+02 -0.127462D+02  0.515274D+01 -0.899558D+02
      2  -0.386944D+01 -0.127462D+02 -0.924468D+01  0.121274D+01 -0.123516D+02
      3   0.595529D+01  0.515274D+01  0.121274D+01 -0.148648D+02  0.577117D+01
               206           207           208           209           210 
      1  -0.123516D+02  0.577117D+01 -0.773219D+02 -0.590752D+01 -0.644171D+01
      2  -0.113032D+02  0.565659D+01 -0.590752D+01  0.371055D+01  0.569719D+01
      3   0.565659D+01 -0.362343D+02 -0.644171D+01  0.569719D+01 -0.112512D+02
               211           212           213           214           215 
      1  -0.202273D+03 -0.235253D+02 -0.599742D+02  0.211614D+03  0.308146D+02
      2  -0.235253D+02  0.142848D+01  0.158199D+01  0.308146D+02  0.578156D+01
      3  -0.599742D+02  0.158199D+01 -0.120399D+03  0.907514D+02  0.521611D+01
               216           217           218           219           220 
      1   0.907514D+02  0.157644D+02 -0.962832D+01 -0.789685D+01 -0.195436D+02
      2   0.521611D+01 -0.962832D+01 -0.320221D+01 -0.971610D+00  0.362564D+01
      3   0.170976D+03 -0.789685D+01 -0.971610D+00 -0.741475D+01  0.349360D+01
               221           222           223           224           225 
      1   0.362564D+01  0.349360D+01 -0.252157D+01  0.249061D+01 -0.364558D+01
      2  -0.170589D+02 -0.106524D+02  0.249061D+01 -0.408214D+01 -0.602897D+01
      3  -0.106524D+02 -0.193758D+02 -0.364558D+01 -0.602897D+01 -0.206280D+01
               226           227           228           229           230 
      1   0.125310D+03  0.343132D+00  0.831551D+01  0.625981D+02  0.237156D+02
      2   0.343132D+00  0.647644D+01  0.469414D+00  0.237156D+02  0.854919D+01
      3   0.831551D+01  0.469414D+00  0.304819D+02 -0.106134D+02 -0.176851D+01
               231           232           233           234           235 
      1  -0.106134D+02 -0.151136D+02 -0.288883D+01  0.311082D+02  0.509094D+02
      2  -0.176851D+01 -0.288883D+01  0.316408D+00 -0.191133D+00  0.110491D+01
      3   0.416923D+02  0.311082D+02 -0.191133D+00 -0.632769D+00  0.296497D+02
               236           237           238           239           240 
      1   0.110491D+01  0.296497D+02 -0.942035D+02 -0.987871D+01 -0.102372D+01
      2   0.456746D+00  0.100544D+00 -0.987871D+01 -0.990556D+01 -0.100538D+01
      3   0.100544D+00  0.162219D+02 -0.102372D+01 -0.100538D+01  0.145683D+02
               241           242           243           244           245 
      1  -0.257950D+02 -0.169328D+01  0.654293D+01 -0.171721D+02 -0.784105D+01
      2  -0.169328D+01 -0.119760D+01 -0.372041D+01 -0.784105D+01  0.590122D+01
      3   0.654293D+01 -0.372041D+01 -0.295722D+02  0.171107D+02 -0.410164D+00
               246           247           248           249           250 
      1   0.171107D+02 -0.277528D+03 -0.326304D+02 -0.115122D+02 -0.271733D+03
      2  -0.410164D+00 -0.326304D+02 -0.146230D+02  0.230600D+02 -0.394942D+02
      3   0.116086D+02 -0.115122D+02  0.230600D+02 -0.138715D+03 -0.106121D+02
               251           252           253           254           255 
      1  -0.394942D+02 -0.106121D+02  0.313539D+02  0.873520D+01 -0.452986D+02
      2   0.518252D+01  0.414686D+00  0.873520D+01  0.111992D+02 -0.737816D+01
      3   0.414686D+00 -0.893522D+02 -0.452986D+02 -0.737816D+01  0.164508D+02
               256           257           258           259           260 
      1  -0.164343D+03 -0.159545D+02  0.978930D+01 -0.174514D+03 -0.334303D+02
      2  -0.159545D+02  0.438169D+01  0.449702D+01 -0.334303D+02 -0.389526D+01
      3   0.978930D+01  0.449702D+01 -0.723611D+02  0.485658D+02  0.851017D+01
               261           262           263           264           265 
      1   0.485658D+02 -0.377988D+01  0.462635D+01 -0.381579D+01 -0.440027D+01
      2   0.851017D+01  0.462635D+01 -0.127504D+01  0.103859D+01 -0.272022D+01
      3  -0.600095D+02 -0.381579D+01  0.103859D+01 -0.141357D+00  0.711762D-01
               266           267           268           269           270 
      1  -0.272022D+01  0.711762D-01 -0.293369D+01  0.334975D+00 -0.149555D+00
      2   0.203294D-01  0.462040D+00  0.334975D+00  0.146092D+00  0.218306D+01
      3   0.462040D+00 -0.262779D+01 -0.149555D+00  0.218306D+01 -0.340771D+01
               271           272           273           274           275 
      1  -0.108590D+03 -0.220675D+02 -0.140521D+02  0.379785D+02 -0.197053D+02
      2  -0.220675D+02 -0.242566D+02 -0.568571D+01 -0.197053D+02 -0.609762D+01
      3  -0.140521D+02 -0.568571D+01 -0.224178D+02  0.534324D+01 -0.302562D+01
               276           277           278           279           280 
      1   0.534324D+01  0.325566D+02 -0.162812D+01  0.225448D+02  0.471947D+02
      2  -0.302562D+01 -0.162812D+01  0.381845D+00 -0.644741D+01  0.135528D+02
      3   0.472290D+02  0.225448D+02 -0.644741D+01  0.217536D+02  0.176814D+02
               281           282           283           284           285 
      1   0.135528D+02  0.176814D+02  0.280787D+03  0.430868D+02  0.578203D+02
      2   0.460256D+01 -0.116817D+01  0.430868D+02  0.521413D+01 -0.681663D+01
      3  -0.116817D+01 -0.438583D+02  0.578203D+02 -0.681663D+01  0.127261D+03
               286           287           288           289           290 
      1  -0.390871D+03 -0.538709D+02 -0.934955D+02 -0.436565D+02 -0.139460D+02
      2  -0.538709D+02 -0.845553D+01  0.319818D-01 -0.139460D+02  0.586098D+00
      3  -0.934955D+02  0.319818D-01 -0.261340D+03 -0.791696D+01  0.604011D+01
               291           292           293           294           295 
      1  -0.791696D+01 -0.418257D+03 -0.478690D+02  0.182012D+01  0.518733D+02
      2   0.604011D+01 -0.478690D+02 -0.966027D+01  0.222106D+01  0.125845D+02
      3  -0.230208D+02  0.182012D+01  0.222106D+01 -0.194632D+03  0.245755D+01
               296           297           298           299           300 
      1   0.125845D+02  0.245755D+01 -0.335072D+01  0.676560D+01  0.473767D+01
      2   0.277913D+01 -0.327939D+01  0.676560D+01 -0.237069D+01 -0.162759D+01
      3  -0.327939D+01  0.944276D+01  0.473767D+01 -0.162759D+01  0.546669D+00
               301           302           303           304           305 
      1   0.552255D+00 -0.105425D+01 -0.767764D+00  0.522191D+00  0.720051D+00
      2  -0.105425D+01 -0.750613D+00 -0.524167D+00  0.720051D+00  0.973211D-01
      3  -0.767764D+00 -0.524167D+00 -0.105150D+01  0.479292D+00 -0.570518D+00
               306           307           308           309           310 
      1   0.479292D+00 -0.352209D+01  0.263478D+01  0.168701D+01 -0.184896D+02
      2  -0.570518D+00  0.263478D+01  0.301131D+01 -0.714326D-01 -0.191630D+01
      3  -0.796927D+00  0.168701D+01 -0.714326D-01 -0.128461D+01  0.940595D+00
               311           312           313           314           315 
      1  -0.191630D+01  0.940595D+00  0.138398D+02  0.707384D+00 -0.334827D+00
      2   0.587769D+01  0.738000D+00  0.707384D+00 -0.474126D+01  0.738543D+00
      3   0.738000D+00 -0.685324D+01 -0.334827D+00  0.738543D+00  0.745570D+01
               316           317           318           319           320 
      1   0.165021D+03  0.259869D+02 -0.250400D+02 -0.368576D+03 -0.595283D+02
      2   0.259869D+02  0.123492D+01 -0.553946D+00 -0.595283D+02 -0.386149D+01
      3  -0.250400D+02 -0.553946D+00  0.279214D+02 -0.725772D+01  0.540550D+01
               321           322           323           324           325 
      1  -0.725772D+01 -0.300958D+03 -0.275780D+02 -0.539273D+02 -0.109856D+03
      2   0.540550D+01 -0.275780D+02 -0.998805D+01  0.696289D+01 -0.928808D+01
      3  -0.163602D+03 -0.539273D+02  0.696289D+01 -0.162590D+03 -0.137819D+02
               326           327           328           329           330 
      1  -0.928808D+01 -0.137819D+02  0.677079D+01 -0.163136D+02  0.226097D+02
      2  -0.342257D+01 -0.209844D+01 -0.163136D+02 -0.542616D+01  0.309505D+01
      3  -0.209844D+01 -0.675306D+01  0.226097D+02  0.309505D+01 -0.703435D+02
               331           332           333           334           335 
      1   0.247081D+03  0.306616D+02  0.438522D+02 -0.650484D+02  0.654176D+01
      2   0.306616D+02  0.407464D+01  0.391916D+01  0.654176D+01  0.107749D+01
      3   0.438522D+02  0.391916D+01  0.105961D+03 -0.590765D+02 -0.105401D+02
               336           337           338           339           340 
      1  -0.590765D+02  0.233716D+03  0.198544D+02  0.213214D+02 -0.133547D+01
      2  -0.105401D+02  0.198544D+02  0.713316D+01 -0.597007D+01  0.127222D+01
      3   0.787283D+01  0.213214D+02 -0.597007D+01  0.370663D+02 -0.238255D+01
               341           342           343           344           345 
      1   0.127222D+01 -0.238255D+01  0.439915D+01  0.138171D+01  0.106636D+01
      2  -0.761833D+00 -0.186869D+01  0.138171D+01  0.962560D+00  0.189194D+01
      3  -0.186869D+01  0.984567D+01  0.106636D+01  0.189194D+01  0.404983D+01
               346           347           348           349           350 
      1  -0.213552D+02 -0.276004D+01  0.187217D+01  0.133141D+02  0.907108D+00
      2  -0.276004D+01  0.373449D+01  0.435527D+01  0.907108D+00  0.272112D+00
      3   0.187217D+01  0.435527D+01 -0.280923D+01 -0.137306D+01  0.908633D+00
               351           352           353           354           355 
      1  -0.137306D+01  0.413912D+01 -0.402991D+01  0.228232D+00 -0.636407D+01
      2   0.908633D+00 -0.402991D+01 -0.337552D+01  0.238092D-01 -0.169151D+01
      3   0.607623D+01  0.228232D+00  0.238092D-01  0.149091D+00 -0.348140D+00
               356           357           358           359           360 
      1  -0.169151D+01 -0.348140D+00 -0.416044D+02 -0.970474D+01  0.395993D+01
      2  -0.209612D+02  0.583855D+01 -0.970474D+01 -0.294612D+01 -0.284495D+01
      3   0.583855D+01 -0.202202D+01  0.395993D+01 -0.284495D+01 -0.105935D+02
               361           362           363           364           365 
      1   0.309175D+01  0.443412D+01 -0.152560D+02  0.386691D+03  0.493783D+02
      2   0.443412D+01  0.186498D+01 -0.352557D+01  0.493783D+02  0.108637D+02
      3  -0.152560D+02 -0.352557D+01 -0.965994D+01  0.229365D+02 -0.218787D+02
               366           367           368           369           370 
      1   0.229365D+02  0.352875D+03  0.473111D+02  0.148293D+02 -0.109122D+03
      2  -0.218787D+02  0.473111D+02  0.928497D+01 -0.170841D+02 -0.171697D+02
      3   0.198833D+03  0.148293D+02 -0.170841D+02  0.165263D+03  0.439799D+02
               371           372           373           374           375 
      1  -0.171697D+02  0.439799D+02  0.228949D+03  0.386825D+02 -0.533474D+01
      2   0.694038D+00  0.994473D+01  0.386825D+02  0.226173D+01  0.102475D+01
      3   0.994473D+01 -0.394877D+02 -0.533474D+01  0.102475D+01  0.677184D+02
               376           377           378           379           380 
      1   0.209553D+03  0.381577D+02 -0.167482D+02 -0.139284D+02 -0.559253D+01
      2   0.381577D+02  0.336546D+01  0.178727D+01 -0.559253D+01  0.452452D+01
      3  -0.167482D+02  0.178727D+01  0.438433D+02  0.410377D+02  0.104990D+02
               381           382           383           384           385 
      1   0.410377D+02  0.825592D+02  0.327402D+02  0.480049D+02 -0.382407D+02
      2   0.104990D+02  0.327402D+02  0.114899D+02  0.135379D+02 -0.351339D+01
      3  -0.375856D+02  0.480049D+02  0.135379D+02 -0.588973D+02 -0.423551D+02
               386           387           388           389           390 
      1  -0.351339D+01 -0.423551D+02 -0.128099D+02  0.520780D+00  0.740765D+01
      2  -0.160276D+00  0.531468D+01  0.520780D+00  0.161465D+01  0.208658D+01
      3   0.531468D+01 -0.576514D+02  0.740765D+01  0.208658D+01 -0.318084D+01
               391           392           393           394           395 
      1   0.246139D+03  0.330997D+02 -0.766591D+01 -0.198166D+02 -0.387860D+01
      2   0.330997D+02  0.581816D+01  0.138664D+01 -0.387860D+01 -0.131817D+01
      3  -0.766591D+01  0.138664D+01  0.982761D+02  0.434390D+00  0.878126D+00
               396           397           398           399           400 
      1   0.434390D+00 -0.144721D+02 -0.181347D+00  0.158285D+01 -0.963530D+01
      2   0.878126D+00 -0.181347D+00 -0.157062D+00  0.898854D+00 -0.343309D+01
      3  -0.690494D+01  0.158285D+01  0.898854D+00 -0.180137D+01 -0.410992D+01
               401           402           403           404           405 
      1  -0.343309D+01 -0.410992D+01  0.606754D+01 -0.587519D+00 -0.185793D+01
      2   0.490281D+01  0.600685D+01 -0.587519D+00  0.135664D+01  0.403393D+01
      3   0.600685D+01  0.241113D+01 -0.185793D+01  0.403393D+01  0.121312D+02
               406           407           408           409           410 
      1  -0.251028D-01 -0.116616D+00 -0.113952D+00  0.181815D+01 -0.215230D+01
      2  -0.116616D+00  0.117964D+01  0.769874D+00 -0.215230D+01  0.297589D+01
      3  -0.113952D+00  0.769874D+00  0.721619D+00 -0.122154D+01  0.160394D+01
               411           412           413           414           415 
      1  -0.122154D+01  0.153991D+01 -0.214539D+01 -0.137181D+01 -0.640617D+00
      2   0.160394D+01 -0.214539D+01  0.271824D+01  0.200249D+01  0.696800D+00
      3   0.879638D+00 -0.137181D+01  0.200249D+01  0.132884D+01 -0.586327D+00
               416           417           418           419           420 
      1   0.696800D+00 -0.586327D+00 -0.114223D+00 -0.166213D+00 -0.838714D-01
      2  -0.288764D+01  0.362651D+00 -0.166213D+00 -0.105366D+00  0.238590D+01
      3   0.362651D+00  0.338073D-01 -0.838714D-01  0.238590D+01 -0.643844D+00
               421           422           423           424           425 
      1  -0.153815D+00  0.333867D+00  0.160326D+01 -0.247499D+03 -0.299210D+02
      2   0.333867D+00  0.333664D+01 -0.272187D+01 -0.299210D+02 -0.716245D+01
      3   0.160326D+01 -0.272187D+01 -0.527497D+00  0.506222D+02  0.128909D+02
               426           427           428           429           430 
      1   0.506222D+02  0.275867D+03  0.464142D+02 -0.393074D+02  0.228815D+03
      2   0.128909D+02  0.464142D+02  0.603020D+01 -0.103811D+02  0.220595D+02
      3  -0.495575D+02 -0.393074D+02 -0.103811D+02  0.131471D+03  0.240231D+02
               431           432           433           434           435 
      1   0.220595D+02  0.240231D+02 -0.527806D+01  0.446258D+01  0.128337D+02
      2  -0.624470D+00  0.919807D+01  0.446258D+01  0.216299D+01  0.226403D+01
      3   0.919807D+01  0.866222D+02  0.128337D+02  0.226403D+01 -0.288488D+02
               436           437           438           439           440 
      1   0.113257D+03  0.174121D+02  0.931419D+01 -0.469541D+03 -0.475423D+02
      2   0.174121D+02  0.370185D+01 -0.156968D+01 -0.475423D+02 -0.713809D+01
      3   0.931419D+01 -0.156968D+01  0.892814D+02 -0.829995D+02 -0.529667D+01
               441           442           443           444           445 
      1  -0.829995D+02 -0.753114D+02 -0.793812D+01 -0.116272D+02 -0.831386D+01
      2  -0.529667D+01 -0.793812D+01 -0.129071D+01  0.300349D+00 -0.516389D+00
      3  -0.227073D+03 -0.116272D+02  0.300349D+00 -0.220746D+02 -0.286711D+01
               446           447           448           449           450 
      1  -0.516389D+00 -0.286711D+01  0.625200D+02  0.587083D+01  0.687171D+01
      2  -0.147357D+00 -0.412295D+00  0.587083D+01  0.217065D+01 -0.311867D+01
      3  -0.412295D+00  0.231494D+02  0.687171D+01 -0.311867D+01  0.488728D+02
               451           452           453           454           455 
      1   0.108410D+01  0.146265D+01  0.748930D+00 -0.164483D+01 -0.549851D+01
      2   0.146265D+01 -0.102938D+02  0.448175D+01 -0.549851D+01  0.119068D+02
      3   0.748930D+00  0.448175D+01 -0.924677D+00  0.268699D+01 -0.824037D+01
               456           457           458           459           460 
      1   0.268699D+01  0.384349D+01 -0.982311D+00  0.984886D+00 -0.110736D+02
      2  -0.824037D+01 -0.982311D+00 -0.489156D+01  0.170611D+01 -0.253961D+01
      3   0.364844D+01  0.984886D+00  0.170611D+01  0.639727D+00 -0.221537D+00
               461           462           463           464           465 
      1  -0.253961D+01 -0.221537D+00 -0.185125D+02 -0.191198D+01  0.120842D+01
      2  -0.649546D+00 -0.122067D+00 -0.191198D+01  0.489722D+01  0.126658D+00
      3  -0.122067D+00 -0.325111D+01  0.120842D+01  0.126658D+00 -0.676521D+01
               466           467           468           469           470 
      1  -0.424592D+01  0.191165D+01 -0.128065D+00 -0.728416D+00  0.394977D+01
      2   0.191165D+01  0.248549D+01  0.210748D+01  0.394977D+01  0.639484D+00
      3  -0.128065D+00  0.210748D+01 -0.284471D+01 -0.361005D+01 -0.296417D+00
               471           472           473           474           475 
      1  -0.361005D+01  0.235482D+01 -0.784525D-01  0.165641D+01  0.209869D+01
      2  -0.296417D+00 -0.784525D-01  0.340024D+01 -0.208701D+01 -0.505408D+00
      3  -0.473801D+00  0.165641D+01 -0.208701D+01  0.175358D+01  0.219658D+01
               476           477           478           479           480 
      1  -0.505408D+00  0.219658D+01  0.916471D+02  0.208617D+02 -0.129055D+02
      2  -0.391086D+00  0.571407D+00  0.208617D+02  0.481762D+01 -0.457467D+01
      3   0.571407D+00 -0.476642D+00 -0.129055D+02 -0.457467D+01  0.180783D+02
               481           482           483           484           485 
      1  -0.564127D+02 -0.752947D+01 -0.423730D+02  0.452772D+03  0.675435D+02
      2  -0.752947D+01 -0.270076D+01 -0.655624D+01  0.675435D+02  0.142305D+02
      3  -0.423730D+02 -0.655624D+01  0.414949D+02  0.223051D+02 -0.201956D+02
               486           487           488           489           490 
      1   0.223051D+02  0.197289D+03  0.393150D+02 -0.206028D+02  0.179075D+01
      2  -0.201956D+02  0.393150D+02  0.850505D+01 -0.441322D+01 -0.126794D+01
      3   0.224154D+03 -0.206028D+02 -0.441322D+01  0.816418D+02 -0.102150D+02
               491           492           493           494           495 
      1  -0.126794D+01 -0.102150D+02 -0.303523D+03 -0.430664D+02  0.637090D+02
      2  -0.122638D+00 -0.925960D+01 -0.430664D+02 -0.830453D+01  0.129394D+02
      3  -0.925960D+01  0.662198D+02  0.637090D+02  0.129394D+02 -0.124657D+03
               496           497           498           499           500 
      1  -0.195056D+01  0.169477D+01 -0.284245D+01 -0.254336D+01  0.828499D+01
      2   0.169477D+01  0.146467D+02 -0.321390D+00  0.828499D+01 -0.158053D+02
      3  -0.284245D+01 -0.321390D+00 -0.435971D+01 -0.785852D+01  0.168123D+02
               501           502           503           504           505 
      1  -0.785852D+01 -0.412401D+01  0.536934D+01 -0.190793D+01 -0.521934D-01
      2   0.168123D+02  0.536934D+01  0.319146D+02 -0.152026D+02 -0.156776D+01
      3  -0.130353D+02 -0.190793D+01 -0.152026D+02  0.773987D+01  0.121379D+01
               506           507           508           509           510 
      1  -0.156776D+01  0.121379D+01 -0.226902D+01 -0.774093D+00  0.158063D+01
      2   0.237688D+01 -0.417281D+01 -0.774093D+00  0.563620D+01 -0.543778D+01
      3  -0.417281D+01  0.220176D+01  0.158063D+01 -0.543778D+01  0.188575D+01
               511           512           513           514           515 
      1   0.377189D+01 -0.155363D+01 -0.730640D+00  0.110667D+01 -0.282219D+01
      2  -0.155363D+01 -0.150057D+02  0.631832D+01 -0.282219D+01 -0.390472D+01
      3  -0.730640D+00  0.631832D+01 -0.583787D+00  0.213825D+01  0.854908D+00
               516           517           518           519           520 
      1   0.213825D+01  0.701076D+00 -0.217090D+01  0.185020D+01  0.334738D-01
      2   0.854908D+00 -0.217090D+01  0.661096D+01 -0.595540D+01  0.524724D+00
      3   0.379441D+00  0.185020D+01 -0.595540D+01  0.548358D+01 -0.134317D+00
               521           522           523           524           525 
      1   0.524724D+00 -0.134317D+00 -0.362410D+00  0.781367D+00 -0.296453D+00
      2  -0.143819D+02  0.660204D+01  0.781367D+00 -0.356837D+01  0.130757D+01
      3   0.660204D+01 -0.340896D+01 -0.296453D+00  0.130757D+01 -0.287434D+00
               526           527           528           529           530 
      1   0.734154D-01 -0.929793D+00  0.916599D+00  0.699963D+00 -0.124835D+01
      2  -0.929793D+00  0.261978D+01 -0.194938D+01 -0.124835D+01  0.961192D+00
      3   0.916599D+00 -0.194938D+01  0.126894D+01  0.138061D+00  0.294188D+00
               531           532           533           534           535 
      1   0.138061D+00  0.670657D-01  0.373127D+00 -0.153000D+00 -0.992270D-02
      2   0.294188D+00  0.373127D+00  0.990824D+00 -0.183333D+01 -0.518319D+00
      3   0.302875D-01 -0.153000D+00 -0.183333D+01  0.235238D+01  0.766915D+00
               536           537           538           539           540 
      1  -0.518319D+00  0.766915D+00  0.392136D+00 -0.502796D+00  0.415537D+00
      2  -0.145205D+00  0.129069D+00 -0.502796D+00 -0.247393D+01  0.207278D+01
      3   0.129069D+00 -0.662279D+00  0.415537D+00  0.207278D+01 -0.208850D+01
               541           542           543           544           545 
      1  -0.125795D+04 -0.120382D+03 -0.498814D+03  0.192170D+04  0.250721D+03
      2  -0.120382D+03  0.114127D+02 -0.883987D+02  0.250721D+03  0.481560D+02
      3  -0.498814D+03 -0.883987D+02  0.404860D+03  0.303638D+03  0.820192D+02
               546           547           548           549           550 
      1   0.303638D+03 -0.658218D+03  0.758749D+02 -0.584963D+03  0.138757D+04
      2   0.820192D+02  0.758749D+02  0.465826D+02 -0.185362D+03 -0.162584D+03
      3  -0.599434D+03 -0.584963D+03 -0.185362D+03  0.103755D+04  0.474603D+03
               551           552           553           554           555 
      1  -0.162584D+03  0.474603D+03  0.102189D+04  0.336948D+03  0.337533D+03
      2  -0.422310D+02  0.499493D+02  0.336948D+03  0.893356D+02  0.583059D+02
      3   0.499493D+02 -0.283446D+03  0.337533D+03  0.583059D+02  0.183662D+03
               556           557           558           559           560 
      1   0.655112D+03  0.141618D+03 -0.144719D+04 -0.187698D+04 -0.179799D+03
      2   0.141618D+03  0.301548D+02 -0.165059D+03 -0.179799D+03  0.569333D+01
      3  -0.144719D+04 -0.165059D+03 -0.340216D+03  0.145071D+03 -0.377100D+02
               561           562           563           564           565 
      1   0.145071D+03  0.172416D+04  0.251268D+03  0.101277D+03  0.417485D+03
      2  -0.377100D+02  0.251268D+03  0.454303D+02  0.771821D+02 -0.219854D+02
      3   0.944295D+03  0.101277D+03  0.771821D+02 -0.609698D+03 -0.130023D+03
               566           567           568           569           570 
      1  -0.219854D+02 -0.130023D+03 -0.109039D+04 -0.217143D+03  0.911545D+03
      2   0.109983D+00 -0.453375D+01 -0.217143D+03 -0.284226D+02  0.478808D+02
      3  -0.453375D+01 -0.719037D+03  0.911545D+03  0.478808D+02  0.501177D+03
               571           572           573           574           575 
      1   0.215663D+03  0.169214D+03 -0.324328D+03 -0.893168D+03 -0.260739D+03
      2   0.169214D+03  0.543830D+02 -0.835311D+02 -0.260739D+03 -0.674857D+02
      3  -0.324328D+03 -0.835311D+02 -0.386900D+03  0.631732D+03  0.152029D+03
               576           577           578           579           580 
      1   0.631732D+03  0.111035D+03 -0.133385D+03  0.104245D+04  0.741346D+02
      2   0.152029D+03 -0.133385D+03 -0.289325D+02  0.135159D+03 -0.114006D+03
      3  -0.407621D+03  0.104245D+04  0.135159D+03 -0.486311D+02  0.402977D+03
               581           582           583           584           585 
      1  -0.114006D+03  0.402977D+03  0.268305D+01  0.778669D+02  0.907276D+02
      2  -0.203980D+02 -0.438847D+02  0.778669D+02  0.917172D+01  0.101912D+03
      3  -0.438847D+02  0.186443D+03  0.907276D+02  0.101912D+03 -0.493773D+03
               586           587           588           589           590 
      1   0.180117D+04  0.340944D+03 -0.459693D+02  0.219307D+04  0.325659D+03
      2   0.340944D+03  0.410588D+02  0.529530D+02  0.325659D+03  0.503598D+02
      3  -0.459693D+02  0.529530D+02 -0.533592D+03  0.622947D+02  0.111757D+03
               591           592           593           594           595 
      1   0.622947D+02 -0.264842D+03 -0.614948D+02  0.958670D+02 -0.201919D+04
      2   0.111757D+03 -0.614948D+02 -0.189903D+02 -0.723230D+02 -0.467960D+03
      3  -0.109772D+04  0.958670D+02 -0.723230D+02  0.780788D+03 -0.778457D+03
               596           597           598           599           600 
      1  -0.467960D+03 -0.778457D+03  0.723344D+03 -0.118791D+03 -0.193623D+03
      2  -0.114250D+03 -0.138120D+03 -0.118791D+03 -0.315543D+02 -0.428617D+02
      3  -0.138120D+03  0.879322D+02 -0.193623D+03 -0.428617D+02  0.697891D+02
               601           602           603           604           605 
      1  -0.102718D+04 -0.318510D+03  0.134107D+04  0.130469D+04  0.208591D+03
      2  -0.318510D+03 -0.693361D+02  0.155258D+03  0.208591D+03  0.943582D+01
      3   0.134107D+04  0.155258D+03  0.211510D+03  0.596917D+03  0.940862D+02
               606           607           608           609           610 
      1   0.596917D+03  0.186858D+04  0.226974D+03  0.574689D+03  0.853893D+03
      2   0.940862D+02  0.226974D+03  0.317365D+02  0.150911D+03  0.142453D+03
      3  -0.204194D+03  0.574689D+03  0.150911D+03 -0.716459D+03  0.524058D+03
               611           612           613           614           615 
      1   0.142453D+03  0.524058D+03  0.994772D+03  0.190312D+03 -0.908290D+03
      2   0.309558D+02  0.151489D+03  0.190312D+03  0.389908D+02 -0.982367D+02
      3   0.151489D+03 -0.112262D+04 -0.908290D+03 -0.982367D+02 -0.319636D+03
               616           617           618           619           620 
      1   0.333589D+02 -0.694634D+02 -0.580203D+03  0.965114D+03  0.268603D+02
      2  -0.694634D+02 -0.278935D+02  0.535201D+01  0.268603D+02 -0.126224D+02
      3  -0.580203D+03  0.535201D+01 -0.371646D+03 -0.929479D+03 -0.117905D+03
               621           622           623           624           625 
      1  -0.929479D+03 -0.478935D+02  0.603304D+00 -0.111946D+04 -0.848038D+02
      2  -0.117905D+03  0.603304D+00 -0.114665D+01 -0.176743D+03  0.314154D+02
      3   0.402279D+03 -0.111946D+04 -0.176743D+03  0.375716D+03  0.314023D+03
               626           627           628           629           630 
      1   0.314154D+02  0.314023D+03  0.242778D+03  0.125113D+03  0.242188D+03
      2   0.161795D+01  0.113352D+03  0.125113D+03  0.231243D+02  0.774918D+02
      3   0.113352D+03 -0.131320D+03  0.242188D+03  0.774918D+02  0.594459D+03
 Property number 2 -- FD Optical Rotation Tensor derivatives, frequency  1    0.102620:
                 1             2             3             4             5 
      1  -0.257494D+02 -0.188774D+01 -0.113064D+03 -0.259694D+03 -0.455206D+02
      2   0.350562D+02 -0.269876D+02  0.105986D+03 -0.470272D+02  0.425245D+02
      3   0.553236D+02  0.295283D+02 -0.175473D+02  0.974956D+02 -0.208858D+02
                 6             7             8             9            10 
      1   0.373801D+03  0.273762D+03  0.282790D+02  0.471623D+02 -0.768794D+02
      2  -0.271983D+03 -0.178111D+03 -0.116328D+02 -0.130734D+03  0.130339D+03
      3   0.453909D+02  0.584044D+02  0.114411D+01  0.709752D+02 -0.701839D+02
                11            12            13            14            15 
      1   0.193287D+02 -0.111480D+03  0.214493D+03  0.948893D+01  0.243810D+03
      2  -0.455384D+01  0.125501D+03  0.165393D+02  0.175864D+02 -0.183751D+03
      3  -0.321742D+01 -0.528745D+02 -0.969127D+02 -0.147075D+02  0.345903D+02
                16            17            18            19            20 
      1   0.103175D+03  0.754999D+02 -0.395430D+03  0.122770D+03  0.446124D+02
      2  -0.828615D+02 -0.347698D+02  0.285781D+03 -0.147242D+03 -0.579778D+02
      3  -0.615995D+01 -0.877237D+01 -0.482678D+02  0.500913D+02  0.177825D+02
                21            22            23            24            25 
      1  -0.479942D+03 -0.240877D+02 -0.386868D+02  0.324187D+03 -0.145355D+03
      2   0.301295D+03  0.426384D+02  0.302058D+02 -0.212528D+03 -0.619891D+02
      3  -0.428558D+02  0.242401D+02 -0.111417D+01  0.311789D+02  0.820927D+02
                26            27            28            29            30 
      1  -0.148965D+02  0.776449D+02 -0.390702D+03 -0.502280D+02 -0.217378D+02
      2  -0.302342D+01 -0.682576D+02  0.246310D+03  0.732922D+01  0.181533D+03
      3   0.783339D+01  0.558560D+01 -0.147700D+02  0.157646D+02 -0.112167D+03
                31            32            33            34            35 
      1   0.178838D+03  0.685527D+02 -0.293615D+03 -0.121898D+03 -0.340005D+02
      2   0.474367D+02 -0.340916D+02  0.217204D+03  0.556842D+02  0.170287D+02
      3  -0.173781D+03 -0.176752D+02 -0.433278D+02  0.381926D+02  0.114995D+02
                36            37            38            39            40 
      1   0.913173D+02  0.549075D+02 -0.171223D+01  0.133585D+03  0.156550D+03
      2  -0.480839D+02  0.892606D+02  0.774342D+01 -0.122180D+03 -0.942407D+02
      3  -0.388453D+01 -0.599115D+02 -0.262781D+01  0.431701D+02 -0.567163D+02
                41            42            43            44            45 
      1   0.896046D+02 -0.366208D+03  0.228398D+02 -0.289820D+02  0.355364D+03
      2  -0.415510D+02  0.186287D+03 -0.137350D+02  0.392317D+02 -0.255768D+03
      3  -0.124548D+02 -0.139164D+02 -0.201209D+02 -0.148498D+02  0.364037D+02
                46            47            48            49            50 
      1  -0.196006D+03 -0.715245D+02  0.334726D+03 -0.970261D+02 -0.431905D+02
      2   0.271489D+02  0.306855D+02 -0.202733D+03  0.167949D+03  0.439237D+02
      3   0.878804D+02  0.462153D+01  0.256688D+02 -0.194429D+03 -0.339675D+02
                51            52            53            54            55 
      1   0.334666D+03 -0.254246D+02  0.208280D+02 -0.293648D+03  0.255935D+02
      2  -0.197537D+03 -0.331938D+02 -0.357651D+02  0.192242D+03 -0.159812D+03
      3   0.141610D+02  0.829333D+02  0.323957D+02 -0.512149D+02  0.858993D+02
                56            57            58            59            60 
      1   0.207547D+02 -0.207316D+03  0.153794D+03  0.711613D+02 -0.466213D+03
      2  -0.281019D+02  0.122512D+03 -0.863344D+02 -0.660082D+02  0.321564D+03
      3   0.451909D+01 -0.995133D+01  0.829065D+02  0.367933D+02 -0.457975D+02
                61            62            63            64            65 
      1  -0.174022D+03 -0.490147D+02  0.191567D+03 -0.250962D+02  0.409000D+00
      2   0.123122D+02  0.988247D+01 -0.126659D+03  0.155708D+03  0.207820D+02
      3   0.336755D+02  0.453832D+01  0.308465D+02 -0.153505D+03 -0.150481D+02
                66            67            68            69            70 
      1  -0.273043D+02  0.172468D+03  0.161935D+02  0.965249D+02 -0.320980D+03
      2   0.401921D+02  0.727185D+02  0.220840D+02 -0.109986D+03  0.114108D+03
      3  -0.384777D+02 -0.900058D+02 -0.219866D+02  0.265190D+02  0.932207D+02
                71            72            73            74            75 
      1  -0.425140D+02 -0.159471D+03 -0.214959D+03 -0.310564D+02  0.989831D+02
      2  -0.115776D+02  0.154654D+03  0.225231D+02  0.652900D+01 -0.582673D+02
      3   0.331013D+02 -0.856016D+02  0.456431D+02  0.475013D+01 -0.208569D+02
                76            77            78            79            80 
      1   0.453769D+01 -0.402655D+01  0.996942D+02  0.220189D+03  0.516640D+02
      2   0.145983D+03  0.149728D+02 -0.803961D+00 -0.312115D+03 -0.330333D+02
      3  -0.721262D+02 -0.526019D+01 -0.763650D+01  0.124845D+03 -0.198384D+01
                81            82            83            84            85 
      1  -0.244307D+03  0.106525D+03  0.314269D+02 -0.376552D+03 -0.142951D+03
      2   0.922680D+02 -0.137178D+03 -0.367632D+02  0.257148D+03  0.116659D+03
      3   0.342237D+02  0.639429D+02  0.148746D+02 -0.597118D+02 -0.338363D+02
                86            87            88            89            90 
      1  -0.331610D+02  0.299369D+03  0.563678D+02  0.353560D+02 -0.280662D+03
      2   0.236155D+02 -0.209108D+03  0.178594D+02 -0.270619D+02  0.207892D+03
      3  -0.593884D+01  0.591440D+02 -0.751333D+02  0.607675D+01 -0.597255D+02
                91            92            93            94            95 
      1  -0.112053D+03 -0.143233D+02 -0.246650D+02  0.748263D+02 -0.211447D+00
      2  -0.235006D+02  0.133462D+02 -0.611910D+01  0.105837D+03  0.249664D+02
      3   0.104415D+03  0.148681D+01 -0.713517D+01 -0.437576D+02 -0.617504D+01
                96            97            98            99           100 
      1   0.756102D+02  0.370233D+03  0.190000D+02  0.219569D+03 -0.521175D+02
      2  -0.250538D+02 -0.159609D+03 -0.106550D+02 -0.283342D+03  0.163034D+03
      3   0.261948D+02  0.110916D+02  0.353684D+01  0.126511D+03 -0.869659D+02
               101           102           103           104           105 
      1  -0.279941D+02  0.309626D+03 -0.182417D+03 -0.632227D+02  0.403825D+03
      2   0.339893D+02 -0.162990D+03  0.136114D+03  0.530929D+02 -0.264493D+03
      3  -0.117421D+02  0.291128D+02 -0.504301D+02 -0.200785D+02  0.607985D+02
               106           107           108           109           110 
      1  -0.662417D+02 -0.382852D+02  0.326977D+03  0.264284D+03  0.516013D+02
      2  -0.308923D+02  0.216449D+02 -0.226498D+03 -0.146809D+03 -0.131986D+02
      3   0.883209D+02  0.821621D+01  0.583487D+02 -0.789012D+02  0.306955D+01
               111           112           113           114           115 
      1  -0.110808D+03  0.361042D+02 -0.116262D+01  0.711486D+02 -0.264715D+03
      2  -0.149265D+02  0.200796D+03  0.254384D+02 -0.409207D+02  0.362882D+03
      3   0.158868D+02 -0.358206D+02 -0.112764D+02 -0.338032D+01 -0.230360D+03
               116           117           118           119           120 
      1  -0.422348D+02  0.259964D+03  0.122169D+03  0.115158D+02  0.348098D+02
      2   0.700923D+02 -0.593010D+02 -0.170086D+02  0.625018D+01 -0.669961D+02
      3  -0.393434D+02 -0.484052D+02 -0.334181D+02 -0.501294D+01  0.174386D+02
               121           122           123           124           125 
      1  -0.147391D+03 -0.689186D+02  0.406247D+03 -0.325269D+03 -0.616634D+02
      2  -0.155861D+03 -0.252979D+02 -0.262181D+03  0.131718D+03  0.670952D+01
      3   0.268933D+03  0.593386D+02  0.107608D+03 -0.805809D+01  0.544822D+01
               126           127           128           129           130 
      1   0.489263D+02 -0.611524D+02 -0.211483D+02  0.243434D+03  0.416551D+02
      2   0.546012D+02  0.191863D+03  0.282471D+02 -0.134335D+03  0.948510D+01
      3  -0.584453D+02 -0.863512D+02 -0.517246D+01  0.139843D+02 -0.746843D+02
               131           132           133           134           135 
      1   0.114727D+02 -0.349536D+03  0.199233D+03  0.324624D+02 -0.283539D+03
      2   0.172831D+02  0.254034D+03 -0.650795D+02 -0.211358D+02  0.197857D+03
      3  -0.244469D+02 -0.112200D+03 -0.459593D+01  0.104867D+02 -0.649546D+02
               136           137           138           139           140 
      1   0.142461D+03  0.228962D+02 -0.410417D+03 -0.651654D+02 -0.278426D+02
      2   0.546276D+02  0.157933D+02  0.260597D+03  0.256993D+03  0.382663D+02
      3  -0.642670D+02 -0.147310D+02 -0.809065D+02 -0.127151D+03 -0.207099D+02
               141           142           143           144           145 
      1   0.192882D+03  0.481281D+02 -0.130489D+02  0.259267D+03  0.414347D+03
      2  -0.862338D+02  0.708053D+02  0.438286D+01 -0.207774D+03 -0.338289D+03
      3   0.180567D+02 -0.211768D+02  0.605587D+01  0.591323D+02  0.770597D+02
               146           147           148           149           150 
      1   0.552994D+02 -0.537696D+02  0.212296D+03  0.214374D+02 -0.269781D+03
      2  -0.515661D+02 -0.112203D+03  0.774214D+02  0.210591D+02  0.175937D+03
      3   0.137954D+02  0.120254D+03 -0.117597D+03 -0.137615D+02 -0.551233D+02
               151           152           153           154           155 
      1   0.186338D+03  0.109279D+02 -0.106979D+03  0.605998D+02  0.176243D+02
      2  -0.503933D+02  0.346624D+01  0.448617D+02 -0.285511D+03 -0.517019D+02
      3  -0.271634D+02 -0.114370D+02  0.749337D+01  0.115922D+03  0.183605D+02
               156           157           158           159           160 
      1   0.360039D+02  0.171166D+03 -0.166754D+01  0.280437D+03 -0.657513D+02
      2  -0.126013D+03  0.903189D+02  0.339961D+02 -0.230324D+03  0.406969D+02
      3   0.743717D+02 -0.706423D+02 -0.185044D+02  0.626113D+02 -0.852886D+02
               161           162           163           164           165 
      1  -0.206886D+02  0.398977D+03 -0.138577D+03 -0.522133D+02  0.382498D+03
      2   0.393003D+02 -0.254525D+03  0.171653D+03  0.409128D+02 -0.204227D+03
      3  -0.296275D+02  0.663709D+02 -0.167938D+02 -0.175398D+01  0.370499D+02
               166           167           168           169           170 
      1  -0.334704D+02 -0.195216D+02  0.452176D+03  0.103064D+03  0.266867D+02
      2   0.111932D+03  0.331313D+02 -0.275654D+03  0.571119D+02  0.178749D+01
      3  -0.152537D+02 -0.117606D+02  0.492126D+02 -0.882566D+02 -0.137236D+02
               171           172           173           174           175 
      1  -0.690177D+02 -0.448395D+02 -0.271829D+01 -0.143243D+02  0.922674D+02
      2   0.850923D+02 -0.100811D+03 -0.122191D+02  0.336805D+02 -0.182871D+03
      3  -0.190955D+02  0.114158D+03  0.876806D+01 -0.830928D+00  0.873552D+02
               176           177           178           179           180 
      1  -0.794571D+00 -0.326159D+03  0.389856D+01  0.215568D+02 -0.369092D+03
      2  -0.443029D+02  0.193524D+03 -0.766849D+02 -0.246116D+02  0.256306D+03
      3   0.330193D+02 -0.334242D+02 -0.820424D+01  0.156979D+01 -0.547160D+02
               181           182           183           184           185 
      1   0.696081D+01  0.368338D+01  0.785802D+00  0.409605D+01  0.307638D+01
      2  -0.202861D+01  0.972853D+00 -0.406061D+00  0.162899D+01  0.734952D-02
      3   0.678737D-01 -0.194743D+01 -0.856923D+00 -0.191878D+01 -0.386633D+01
               186           187           188           189           190 
      1  -0.283348D+01 -0.152840D+00 -0.142799D+01  0.555351D+01  0.531805D+01
      2   0.125225D+01  0.260356D+01  0.769307D+00  0.355082D+00  0.235968D+01
      3  -0.116100D+00 -0.128342D+01 -0.615735D+00  0.123796D+00 -0.355932D+01
               191           192           193           194           195 
      1  -0.155498D+01 -0.887622D+01  0.862188D+01  0.265008D+00 -0.137519D+02
      2  -0.573381D+00  0.211053D+01 -0.358745D+00  0.589870D+00  0.814875D+01
      3   0.539270D-01 -0.253495D+00 -0.230741D+01 -0.154338D+01 -0.309050D+01
               196           197           198           199           200 
      1  -0.391770D+01 -0.154036D+01  0.586725D+01 -0.147474D+01 -0.244559D+01
      2   0.563161D+01  0.161404D-01 -0.153929D+01 -0.421681D+01  0.106128D+01
      3  -0.327157D+01  0.759395D+00  0.120952D+01  0.236803D+01 -0.726835D+01
               201           202           203           204           205 
      1   0.119909D+01  0.464388D+01  0.400731D+01 -0.855843D+01  0.826909D+01
      2  -0.233212D+01  0.143756D+01  0.101612D+01  0.466115D+01  0.377237D+01
      3   0.492297D+00 -0.101288D+02 -0.492653D+01 -0.200339D+01 -0.982115D+01
               206           207           208           209           210 
      1   0.894878D+01 -0.229051D+02  0.370593D+01  0.170970D+01 -0.172988D+01
      2   0.606226D+00  0.107626D+02  0.244055D+01 -0.281400D+01  0.533449D+01
      3  -0.399324D+01 -0.225232D+01 -0.907525D+01  0.116910D+01  0.259552D+01
               211           212           213           214           215 
      1  -0.295380D+01  0.311119D+01 -0.426760D+02  0.897819D+01 -0.526115D+01
      2   0.253419D+02 -0.280834D+00  0.414801D+02 -0.425446D+02 -0.596280D+01
      3  -0.252847D+02  0.104917D+01 -0.124644D+02  0.234230D+02  0.197640D+01
               216           217           218           219           220 
      1   0.594856D+02 -0.407359D+01 -0.166155D+01 -0.240957D+01  0.352354D+01
      2  -0.612410D+02 -0.896037D+00  0.363758D+01  0.495795D+01  0.147372D+00
      3   0.258725D+02  0.140574D+01 -0.630839D+01 -0.400938D+01 -0.130749D+01
               221           222           223           224           225 
      1  -0.492061D+01 -0.100496D+02 -0.331431D+01  0.267417D+01 -0.101546D+01
      2   0.294671D+01  0.579932D+01  0.136214D+01  0.149794D+01  0.112940D+01
      3  -0.666017D+01 -0.570770D+01 -0.454069D-01  0.395186D-01 -0.251211D+01
               226           227           228           229           230 
      1  -0.821855D+01 -0.762854D+00  0.113357D+02 -0.123123D+02 -0.286762D+01
      2  -0.135678D+02  0.677537D+00 -0.999694D+01  0.286105D+01 -0.890623D+00
      3   0.899784D+01  0.142993D+01  0.255915D+01  0.186428D+01  0.432200D+01
               231           232           233           234           235 
      1   0.187380D+02  0.170063D+01  0.305858D+01 -0.397044D+01  0.387000D+01
      2  -0.124743D+02 -0.685372D+01 -0.120244D+01 -0.183354D+01 -0.165573D+02
      3   0.378476D+01 -0.124745D+01  0.827687D+00 -0.152740D+00  0.427237D+01
               236           237           238           239           240 
      1   0.258045D+01  0.587371D+01  0.138803D+02 -0.178165D+00  0.111418D+02
      2  -0.153607D+01 -0.610529D+01  0.629380D+00  0.407621D+00 -0.131281D+01
      3   0.477310D+00  0.427241D+00 -0.754123D+01 -0.351918D+01  0.286201D+00
               241           242           243           244           245 
      1   0.241235D+01  0.357226D+01 -0.734128D+01  0.237030D+01  0.672798D+00
      2  -0.768455D+00  0.112000D+01  0.926286D+01 -0.236052D+01  0.310739D+00
      3  -0.309441D+01 -0.150678D+01 -0.420785D+01 -0.350170D+01  0.227818D-01
               246           247           248           249           250 
      1   0.607764D+01  0.277284D+02  0.779658D+01 -0.533071D+02  0.282002D+02
      2  -0.297453D+01  0.169233D+02 -0.596227D+01  0.436922D+02  0.176787D+02
      3   0.724911D+01 -0.258437D+02 -0.530631D+01 -0.789106D+01 -0.284667D+02
               251           252           253           254           255 
      1   0.954149D+01 -0.366154D+02 -0.191960D+02 -0.117864D+01  0.118899D+02
      2   0.122415D+01  0.286815D+02  0.121254D+02  0.266885D+01 -0.155671D+01
      3   0.107224D+01 -0.105810D+02 -0.480981D+01  0.407498D+01 -0.451165D+01
               256           257           258           259           260 
      1   0.226723D+02  0.425329D+01 -0.287604D+02  0.323147D+02  0.340617D+01
      2   0.135827D+02  0.821664D+00  0.222059D+02 -0.143558D+01 -0.265549D+01
      3  -0.127420D+02  0.432375D+01 -0.949308D+01 -0.115091D+02 -0.200859D+01
               261           262           263           264           265 
[...]
 .00145227,-0.03218601,0.12281504,0.26618858,-0.00026974,0.00011350,-0.
 00018937,-0.00520661,0.00397420,-0.00308575,0.00321312,-0.00195110,0.0
 0036465,-0.00884647,-0.00099494,-0.00103332,-0.00119338,0.00082451,-0.
 00157405,-0.00575288,-0.00890339,0.00584859,0.00245383,0.00043408,-0.0
 0055103,0.00178743,-0.00693662,0.01442397,0.00044443,0.00276946,-0.005
 35054,-0.00312582,0.00208014,-0.00106133,0.00377722,-0.00285026,-0.004
 84202,-0.00156632,-0.00368030,0.00201816,-0.03844421,-0.04759572,-0.04
 964905,0.02074841,-0.00671926,-0.04569814,-0.00324781,-0.00569552,-0.0
 0463957,0.00960413,-0.00473354,-0.00007076,0.01531408,0.00300626,0.009
 26341,0.05851513,-0.06640621,-0.12940523,0.05307548,0.01739961,-0.0855
 1055,-0.00611582,-0.00393733,0.00535312,0.00013244,0.00021815,0.000288
 70,-0.00029543,0.00002371,0.00061708,-0.00018037,-0.00023950,-0.000082
 41,0.00025375,-0.00074239,0.00256833,-0.00012855,0.00032964,-0.0005509
 3,-0.00000548,0.00050198,-0.00175026,0.00005485,0.00027123,-0.00052935
 ,-0.00012349,0.00021017,-0.00030495,-0.00038443,0.00011117,0.00152894,
 0.00001535,0.00002401,0.00001698,-0.00133693,-0.00115745,-0.00297419,0
 .00009288,0.00182289,-0.00167928,0.00054727,0.00008132,0.00005270,0.00
 014270,-0.00023215,0.00025875,-0.00007119,-0.00042065,0.00046737,-0.00
 008079,0.00002667,0.00121753,-0.00011946,-0.00028896,0.00077973,0.0001
 4873,0.00008648,0.00010640,-0.00002351,-0.00002297,0.00012440,-0.00000
 951,0.00003065,0.00001155,-0.00002888,-0.00003523,0.00017293,0.0003502
 5,-0.00036453,-0.00044851,0.00135852,0.00107057,0.00086417,-0.00023783
 ,-0.00005921,0.00010696,-0.00004589,-0.00005288,0.00007861,-0.00005134
 ,0.00011380,-0.00007276,-0.00000650,0.00016331,-0.00030257,0.00032195,
 -0.00060082,-0.00053266,0.00057771,0.00026354,-0.00066706,0.00003890,-
 0.00017085,-0.00010271,0.00000102,-0.00003989,0.00014842,0.00004223,0.
 00005041,-0.00002856,-0.00000030,-0.00000088,-0.00001577,-0.00023959,-
 0.00066451,-0.00042820,-0.00088976,-0.00018733,-0.00040705,0.00013611,
 0.00009357,-0.00037371,-0.00012112,-0.00010005,0.00035967,0.00001669,-
 0.00008523,0.00018227,-0.00002137,0.00000124,-0.00002176,-0.00000136,-
 0.00002326,-0.00004504,0.00015873,-0.00544493,0.00731440,-0.00232512,-
 0.00022792,0.00819166,-0.00592916,0.00551255,0.00837498,0.00851992,-0.
 00264789,0.00420572,0.01047640,0.00793251,-0.00156257,0.00577925,0.015
 97430,-0.01335766,0.02045219,-0.00731516,-0.05627337,-0.08501451,0.143
 72733,0.35716936,0.00000149,-0.00116172,-0.00084052,-0.00461854,0.0038
 2434,-0.00344497,0.00067735,-0.00043019,0.00026553,-0.00539529,-0.0004
 0226,-0.00108655,-0.00161361,-0.00137866,0.00066795,-0.00320679,-0.004
 94213,0.00265511,0.00232173,0.00013099,0.00014678,-0.00149261,-0.00454
 498,0.00824227,0.00109099,0.00346176,-0.00732485,-0.00143406,-0.000402
 29,-0.00354833,0.00641656,-0.00436596,-0.00554992,-0.00165940,0.000242
 30,-0.00029867,0.00218836,0.00886190,0.01678418,-0.00237513,-0.0066563
 5,-0.00793615,-0.05330963,-0.00002911,0.00017222,0.00932367,-0.0045211
 6,0.00476476,-0.04020278,-0.02529516,-0.04639425,-0.13116688,-0.069882
 53,0.02206438,0.00947731,0.00577671,0.00759480,-0.12874565,0.02716825,
 0.07034416,-0.00101927,-0.00007850,-0.00033848,0.00038321,-0.00034110,
 0.00045441,-0.00020867,-0.00022988,-0.00016243,0.00141057,0.00057136,0
 .00226561,-0.00052135,0.00026779,-0.00083012,-0.00081443,0.00126478,-0
 .00182933,0.00011936,0.00044518,-0.00065505,-0.00027888,0.00033652,-0.
 00027430,0.00030085,0.00055007,0.00066947,0.00005653,0.00003591,0.0000
 2833,-0.00213104,-0.00247149,-0.00173570,-0.00127971,0.00011512,-0.001
 66609,0.00086260,0.00005503,-0.00006407,0.00047356,-0.00023562,0.00028
 888,0.00011354,-0.00042122,0.00058739,0.00016305,-0.00024385,0.0012143
 2,-0.00024748,-0.00082841,0.00112899,0.00027525,0.00028299,0.00025580,
 -0.00001959,-0.00006337,0.00019393,0.00002634,0.00008355,-0.00006725,-
 0.00000228,-0.00001469,0.00012526,0.00010317,-0.00015380,-0.00014433,0
 .00086421,0.00150366,-0.00029040,-0.00057006,-0.00016296,0.00032096,-0
 .00010870,-0.00019287,0.00018606,-0.00010496,0.00011243,-0.00004928,-0
 .00005620,0.00016210,-0.00027744,0.00023601,-0.00032759,-0.00032433,0.
 00114425,0.00054593,-0.00078748,0.00002233,-0.00026452,0.00001377,0.00
 012041,-0.00023685,0.00014062,0.00001490,0.00003255,-0.00001539,0.0000
 2466,0.00002542,-0.00001032,-0.00005943,-0.00011137,-0.00015814,0.0001
 7965,-0.00010574,0.00029360,-0.00007064,0.00027067,-0.00026139,-0.0000
 1020,-0.00012214,0.00027990,0.00005183,-0.00014444,0.00017921,-0.00003
 661,0.00001697,-0.00001540,-0.00000599,-0.00000408,-0.00004205,0.00189
 708,-0.00567507,0.00684059,-0.00584560,0.00125270,0.01042115,-0.012956
 55,0.01074443,0.00756211,0.00799206,-0.00104171,0.00146777,0.00674089,
 0.00478097,-0.00075141,0.00630154,0.00748754,-0.00413654,0.00576363,0.
 00311091,-0.01452569,-0.01092597,-0.02739357,-0.03045566,0.40098135,0.
 00006172,0.00078268,-0.00232595,-0.00209287,0.00138835,-0.00111303,0.0
 0192979,-0.00190531,0.00244726,-0.00382573,-0.00022664,-0.00076603,-0.
 00118452,0.00170524,-0.00191614,-0.00362289,-0.00420554,0.00199505,0.0
 0256053,0.00235867,-0.00094274,-0.00053046,-0.00363692,0.00692382,0.00
 111194,0.00105178,-0.00259071,-0.00711300,0.00554168,-0.00228985,0.001
 83945,-0.00207394,-0.00326492,-0.00196677,-0.00205869,0.00282026,0.003
 16207,0.00637349,0.00501333,-0.00224949,0.00191794,-0.00395428,0.01477
 370,0.00557371,0.00463461,0.00825972,-0.00172592,0.00075440,-0.0285525
 3,-0.04466828,-0.05491274,-0.05748915,-0.05355800,0.00845889,0.0018552
 5,-0.01508030,-0.01512270,0.01884288,-0.08018287,-0.04694605,0.0016577
 1,0.00056203,0.00132590,-0.00085509,0.00024220,0.00042441,-0.00022680,
 -0.00022835,0.00002991,-0.00146110,-0.00415135,0.00351754,-0.00003008,
 0.00060517,0.00001628,0.00074515,-0.00030916,-0.00113694,-0.00017635,0
 .00026716,-0.00033535,0.00012728,0.00004936,-0.00011512,-0.00058703,-0
 .00028537,0.00190140,-0.00002449,0.00003721,0.00003773,-0.00121405,-0.
 00120028,-0.00420241,0.00108640,0.00228496,-0.00068639,0.00022410,0.00
 007255,0.00012084,0.00012267,-0.00031232,0.00002804,-0.00014816,-0.000
 57338,0.00016469,-0.00016518,0.00018131,0.00071072,-0.00023013,0.00031
 151,0.00025052,0.00015988,-0.00016213,0.00007412,0.00001446,-0.0000789
 4,0.00009361,-0.00003389,0.00014804,-0.00003069,-0.00006075,-0.0000067
 1,0.00011574,0.00011675,-0.00029016,-0.00039659,0.00122240,0.00133712,
 0.00153949,-0.00000289,-0.00002063,-0.00006741,-0.00000282,0.00003282,
 0.00001922,-0.00008923,0.00010860,-0.00000003,-0.00000585,0.00023016,-
 0.00023081,0.00009665,-0.00041095,-0.00033230,0.00018115,-0.00000547,-
 0.00030545,0.00002748,-0.00009435,-0.00008192,0.00003337,-0.00015615,0
 .00013589,0.00005129,0.00003411,-0.00001555,-0.00001168,-0.00002256,-0
 .00000467,-0.00025729,-0.00058004,-0.00039626,-0.00051350,-0.00132714,
 -0.00061130,0.00009928,0.00030139,-0.00043497,-0.00014841,-0.00021727,
 0.00034090,0.00001716,-0.00017944,0.00022550,-0.00002712,0.00003065,-0
 .00001364,0.00001478,-0.00000123,-0.00004680,0.00048287,-0.00296810,0.
 00317369,0.00015015,-0.00048865,0.00453928,-0.00423803,0.00391041,0.00
 599445,0.00291029,-0.00165969,0.00323398,0.00516888,0.00264734,0.00085
 170,0.00243286,0.00602408,-0.00571657,0.00146185,-0.00201917,-0.012819
 56,-0.01554401,-0.02463230,-0.03217944,0.07724789,0.19965771,-0.003074
 59,0.00384055,0.00024479,-0.00124299,0.00215290,-0.00182081,0.00074540
 ,-0.00225245,0.00166289,-0.00533008,-0.00001636,-0.00105230,0.00127846
 ,0.00202628,-0.00099104,-0.00356967,-0.00357539,0.00075079,-0.00106752
 ,0.00012756,-0.00088302,0.00022170,-0.00092068,0.00567796,0.00162586,0
 .00135710,-0.00398462,-0.00769592,0.00012693,-0.00008128,0.00470830,-0
 .00333996,-0.00710718,0.00220158,0.00075341,0.00164968,0.00310448,0.00
 077698,0.00197169,-0.00109837,-0.00313010,0.00268893,0.02686136,0.0022
 8012,0.00671146,0.01573071,-0.00869085,-0.00070465,-0.05796304,-0.0529
 2269,-0.13635216,0.03119205,0.02105017,-0.01984645,-0.01088666,-0.0392
 3082,-0.03392064,0.06513279,-0.03789868,-0.14277760,-0.00182363,-0.000
 51056,-0.00081415,0.00129899,-0.00043919,-0.00013536,-0.00006179,-0.00
 007132,-0.00005658,0.00159060,0.00244831,-0.00141199,-0.00012327,-0.00
 044260,-0.00007050,-0.00160301,0.00123578,-0.00007731,-0.00024692,0.00
 014799,-0.00042889,-0.00025096,0.00029888,-0.00024522,0.00060902,0.000
 66982,-0.00098358,0.00005606,-0.00000720,0.00000070,-0.00068435,-0.000
 41960,0.00165956,-0.00053899,-0.00148539,0.00086395,-0.00000435,0.0000
 9754,0.00026611,0.00020307,0.00017925,0.00001319,0.00021860,0.00043819
 ,-0.00013159,0.00033555,-0.00039239,0.00005334,0.00074032,-0.00068531,
 0.00080125,-0.00018326,0.00000239,0.00020670,0.00004952,-0.00004076,-0
 .00000557,0.00001185,-0.00006102,0.00003605,0.00004083,0.00004806,0.00
 011733,0.00010111,0.00016077,0.00017456,0.00052671,-0.00065733,-0.0013
 2789,0.00017079,-0.00030975,-0.00011087,0.00013693,0.00009990,-0.00007
 841,0.00002671,-0.00008536,-0.00000424,-0.00003144,-0.00012449,0.00013
 154,-0.00000484,0.00004487,0.00030915,0.00047829,0.00039401,-0.0010240
 3,-0.00008537,0.00004247,0.00006425,0.00007950,-0.00002486,-0.00004338
 ,-0.00004306,-0.00000165,0.00001226,0.00002722,0.00003396,-0.00001170,
 0.00006559,0.00054245,0.00019383,-0.00100988,0.00046288,0.00174800,-0.
 00020134,-0.00011628,0.00030355,0.00017473,0.00014692,-0.00022772,0.00
 003743,0.00010019,-0.00011647,-0.00000197,-0.00002728,0.00000223,-0.00
 002841,-0.00000689,0.00001679,0.00113285,-0.00363111,0.00453035,0.0029
 0486,-0.00233509,0.00807143,-0.00617156,0.00729978,0.00949668,0.003001
 96,-0.00394488,0.00431949,0.00534913,0.00199789,0.00026733,-0.00008789
 ,0.00513604,-0.00707857,0.00007629,-0.00086529,-0.00865101,0.00349527,
 -0.02442479,-0.02026022,-0.03686386,0.14106351,0.34074340,-0.00748242,
 0.00627268,0.00446411,-0.00410652,0.00597383,-0.00578271,-0.00031072,-
 0.00022592,-0.00135462,-0.00787604,-0.00048250,-0.00185527,0.00182563,
 -0.00029537,0.00140843,-0.00532694,-0.00539988,0.00123319,-0.00114171,
 -0.00009461,-0.00035536,-0.00122049,-0.00430435,0.00813307,0.00294733,
 0.00443877,-0.01129062,-0.00403457,0.01437054,0.01108726,0.01333513,-0
 .00821863,-0.01239435,0.00149886,0.00212977,-0.00062301,0.00155302,0.0
 0619939,0.01061948,-0.00154989,-0.00117748,0.00042224,-0.07647117,-0.0
 0428507,-0.01864151,-0.10073598,0.03858973,-0.06570870,-0.12146049,0.0
 3178101,0.06651116,0.01495581,0.01201820,0.00385578,-0.00744036,-0.002
 94317,-0.00010660,-0.02327708,-0.00777210,-0.01677328,-0.00160265,-0.0
 0045300,-0.00037517,0.00162565,-0.00057524,-0.00052444,-0.00024523,-0.
 00020459,-0.00011979,0.00114857,0.00071489,0.00021528,-0.00001024,-0.0
 0024346,0.00021696,-0.00280526,0.00205759,-0.00040105,-0.00039639,-0.0
 0007562,-0.00039487,-0.00037460,0.00038227,-0.00021525,0.00062630,0.00
 078274,-0.00059797,0.00007111,0.00001532,0.00003864,-0.00134147,-0.001
 68864,0.00080775,-0.00053507,-0.00146784,0.00059908,-0.00055087,-0.000
 25845,0.00036076,0.00031633,0.00009750,-0.00005809,0.00027068,0.000394
 84,-0.00030743,0.00051493,-0.00062276,0.00020036,0.00019466,-0.0010221
 6,0.00130731,-0.00059954,-0.00081084,0.00036412,0.00007758,-0.00008765
 ,0.00000468,0.00002329,0.00005765,-0.00004096,0.00000902,0.00008481,0.
 00010632,0.00002214,0.00013240,0.00021228,0.00075705,0.00075353,-0.000
 87734,0.00051829,0.00015833,-0.00016328,0.00014165,0.00007719,-0.00012
 090,-0.00001762,-0.00007235,0.00003468,-0.00004696,-0.00008539,0.00016
 888,0.00013367,0.00005440,0.00036835,0.00031560,-0.00003795,-0.0004994
 3,-0.00013979,-0.00010677,0.00017204,0.00020601,-0.00025826,-0.0000206
 4,-0.00005914,-0.00001404,0.00002985,0.00003959,0.00004071,-0.00001160
 ,-0.00011416,0.00018431,0.00010429,0.00007490,-0.00017926,0.00157161,-
 0.00038220,0.00014519,0.00029976,0.00023535,0.00006382,-0.00026394,0.0
 0008154,-0.00000047,-0.00006084,-0.00002282,-0.00000635,0.00000390,-0.
 00003036,0.00001018,0.00000499,0.00325472,-0.00858967,0.01097938,-0.00
 366702,-0.00116937,0.02035160,-0.04004247,0.03528667,0.02898609,0.0092
 0059,-0.00480011,0.00450802,0.00903090,0.00397739,0.00038408,0.0042148
 0,0.00804304,-0.00641027,0.00270529,0.00051592,-0.01302859,-0.00347485
 ,-0.01517972,-0.01665450,-0.05562635,-0.01556848,-0.03376351,0.4025934
 5,0.00209832,0.00365433,-0.00299161,0.00241333,-0.00266904,0.00287495,
 0.00080980,-0.00214803,0.00424447,0.00253174,0.00027214,0.00044554,-0.
 00231683,0.00189003,-0.00232571,0.00136852,0.00077331,0.00024678,0.001
 56387,0.00230722,-0.00121472,-0.00039591,0.00033173,-0.00136566,-0.001
 57549,-0.00234953,0.00477938,0.00864298,-0.01192269,-0.01038785,-0.003
 99541,0.00404555,-0.00011812,-0.00243916,-0.00221816,0.00140706,0.0006
 2709,-0.00106590,-0.00161674,0.00066756,0.00069624,-0.00242370,0.00627
 567,-0.08764380,-0.06450225,0.03355584,-0.03204458,0.02229169,0.035855
 54,-0.02986351,-0.02300280,-0.00488154,-0.00163078,-0.00271645,0.00517
 377,0.00763230,0.00168233,-0.02347919,-0.00079233,-0.00950148,-0.00062
 700,0.00018008,-0.00023961,-0.00062424,-0.00019048,0.00039559,0.000102
 85,-0.00006841,-0.00006517,0.00028217,0.00032661,0.00045517,-0.0000932
 1,0.00042189,-0.00043461,0.00103330,0.00010367,-0.00208474,-0.00127717
 ,-0.00129209,-0.00151163,-0.00005694,0.00014020,-0.00008166,-0.0000925
 9,-0.00002975,0.00045224,0.00001534,0.00002578,0.00000805,-0.00038887,
 -0.00039924,-0.00117037,-0.00035832,0.00018298,-0.00010239,-0.00070890
 ,0.00021600,0.00040512,0.00030619,-0.00022498,0.00022191,0.00004973,-0
 .00038931,0.00036519,-0.00006970,0.00029833,0.00138282,-0.00169203,0.0
 0013079,0.00069182,0.00035925,-0.00197486,0.00142759,0.00028733,-0.000
 70716,0.00059136,0.00003619,0.00005667,-0.00006730,0.00002030,-0.00011
 971,-0.00001448,0.00008013,-0.00011679,-0.00016965,0.00001046,0.000388
 59,0.00003248,0.00021185,0.00033270,-0.00007317,0.00003702,0.00001215,
 0.00003208,-0.00005862,0.00010488,-0.00002473,0.00003242,0.00018255,-0
 .00027829,0.00007171,-0.00038249,-0.00052691,0.00134344,-0.00108431,0.
 00029501,0.00018102,-0.00055059,0.00009598,0.00000421,-0.00009841,0.00
 014187,0.00003018,0.00004263,-0.00003437,0.00000476,-0.00000215,-0.000
 00971,0.00006036,0.00000728,-0.00008864,0.00019229,-0.00008653,-0.0000
 0947,0.00012136,0.00017992,-0.00035655,-0.00012984,-0.00014117,0.00032
 637,-0.00000327,-0.00013214,0.00017226,-0.00001316,0.00002135,-0.00000
 934,0.00001951,-0.00000440,-0.00003719,0.00046769,0.00384142,-0.005305
 16,0.00450113,-0.00267060,-0.00841879,0.02596697,-0.01224298,-0.014523
 84,-0.00399290,0.00122987,-0.00062999,-0.00210296,-0.00148844,0.001900
 70,-0.00041496,-0.00206109,0.00146632,-0.00160845,-0.00066821,0.001586
 64,-0.00109807,0.00141797,0.00446527,0.00410860,0.00593426,-0.00449547
 ,-0.08702705,0.16409322,-0.00390930,0.00098716,0.00563225,0.00166428,-
 0.00004475,-0.00021324,-0.00319470,0.00003744,0.00033851,0.00157211,0.
 00053009,0.00029282,0.00233770,-0.00008470,0.00028186,-0.00127354,-0.0
 0045319,-0.00020678,-0.00205619,0.00244240,-0.00178832,-0.00077059,-0.
 00085072,-0.00007795,-0.00125559,0.00148099,-0.00063147,0.03486551,-0.
 03074816,-0.01986581,0.00288721,-0.00429896,-0.00704477,-0.00017315,-0
 .00166327,0.00077697,0.00071329,-0.00046927,-0.00280367,0.00111755,0.0
 0415518,0.00138641,-0.01656600,-0.05820061,-0.19742226,-0.07528898,0.0
 3687566,-0.07227353,0.07751930,-0.02017690,-0.06832996,-0.00457622,-0.
 00687861,-0.00622639,0.00415428,0.00149718,0.00457054,-0.04614093,-0.0
 0880141,-0.01821613,0.00030356,-0.00017094,0.00029173,0.00034666,0.000
 29959,-0.00029219,0.00005580,0.00007723,0.00004590,-0.00041331,-0.0006
 5271,-0.00093382,0.00041297,-0.00046691,0.00067677,0.00012211,-0.00005
 607,0.00144320,-0.00052409,0.00004358,0.00043378,0.00004910,-0.0000993
 7,0.00005844,0.00001789,0.00001638,-0.00066443,-0.00001018,-0.00002821
 ,0.00000590,0.00058204,0.00053308,0.00126367,0.00106810,-0.00022866,0.
 00117472,-0.00033827,0.00021249,-0.00008496,-0.00035838,0.00026935,-0.
 00022517,-0.00002636,0.00054132,-0.00052001,-0.00012014,0.00000376,-0.
 00127262,0.00053933,-0.00038517,-0.00167697,-0.00015804,-0.00054815,-0
 .00021130,0.00002059,0.00001529,-0.00013514,-0.00001981,-0.00010742,0.
 00011109,-0.00000498,0.00003617,-0.00003035,-0.00001329,0.00014663,0.0
 0021577,-0.00075396,-0.00041362,-0.00047013,0.00043601,-0.00019539,-0.
 00024997,0.00012973,0.00016438,-0.00015828,0.00010826,-0.00011954,0.00
 001796,0.00001846,-0.00018517,0.00027566,-0.00010856,0.00043144,0.0003
 7901,-0.00066869,-0.00047481,0.00227935,-0.00015656,0.00073544,-0.0000
 8796,-0.00005539,0.00018686,-0.00012912,-0.00002609,-0.00001719,0.0000
 1276,-0.00000848,-0.00000299,0.00000096,-0.00001474,0.00012896,0.00012
 214,0.00053443,0.00011800,-0.00022229,-0.00004001,-0.00029285,0.000347
 65,0.00009591,0.00017640,-0.00032315,-0.00001372,0.00017601,-0.0001931
 6,0.00002365,-0.00003206,0.00000906,-0.00001767,-0.00000630,0.00003883
 ,0.00459340,0.00072545,-0.00187265,0.00335210,-0.00168141,0.00249855,-
 0.00640075,-0.00829795,-0.00444678,-0.00081322,-0.00102051,0.00002347,
 0.00075637,-0.00262628,0.00351178,0.00004290,-0.00023491,0.00033759,-0
 .00478366,-0.00330470,-0.00106628,-0.00358297,-0.00009903,0.00295279,0
 .00453585,-0.00667135,-0.00294420,0.02966008,0.10804629,0.38150330\\0.
 00000247,-0.00000768,0.00001154,0.00001529,-0.00000625,0.00001955,0.00
 001136,-0.00000579,0.00000254,0.00001718,-0.00000571,0.00002498,0.0000
 1328,0.00002791,-0.00001184,0.00001546,0.00001779,0.00001940,0.0000081
 2,-0.00002568,0.00001169,0.00001828,-0.00000734,-0.00000683,0.00000268
 ,-0.00000350,0.00002663,0.00000029,0.00000356,0.00002444,-0.00000842,0
 .00000528,0.00001286,0.00001309,0.00000922,-0.00001481,-0.00000588,-0.
 00000074,-0.00001248,0.00000413,0.00000257,-0.00000360,-0.00000960,-0.
 00000232,-0.00000295,-0.00002652,-0.00000437,-0.00000603,-0.00001826,0
 .00000265,0.00000415,-0.00001090,-0.00001314,-0.00000480,-0.00000075,-
 0.00001482,-0.00001217,-0.00001532,0.00001782,0.00000793,-0.00000645,0
 .00000642,-0.00000364,-0.00000623,-0.00001396,0.00000003,0.00000452,-0
 .00000387,-0.00000549,-0.00002449,0.00000759,-0.00001088,-0.00000885,0
 .00000175,-0.00000548,-0.00000608,0.00000344,0.00000962,-0.00001216,0.
 00000056,0.00000473,0.00000133,-0.00000381,-0.00000118,0.00001813,0.00
 000324,-0.00000580,0.00000290,0.00000078,-0.00000445,-0.00000013,-0.00
 000438,-0.00000120,0.00001129,-0.00001501,-0.00001683,-0.00000727,0.00
 000710,-0.00000183,-0.00000164,0.00000354,-0.00001114,-0.00000209,-0.0
 0000540,0.00000156,0.00000276,0.00001138,0.00000146,-0.00001728,-0.000
 01164,-0.00000241,-0.00001050,0.00000429,0.00000127,-0.00000985,0.0000
 0338,0.00000514,0.00000599,-0.00000180,0.00000902,0.00000784,-0.000001
 01,0.00000491,-0.00000641,-0.00000310,-0.00001097,0.00000202,0.0000010
 4,-0.00001185,-0.00001285,0.00000082,-0.00000422,-0.00001326,-0.000000
 48,-0.00000086,-0.00000915,-0.00000230,-0.00000714,-0.00000679,0.00000
 314,-0.00000189,0.00001344,-0.00000449,0.00000464,0.00001000,0.0000314
 5,0.00002190,-0.00000219,-0.00000485,0.00000985,0.00000162,-0.00000623
 ,-0.00000119,-0.00000022,0.00000007,0.00000377,0.00000445,0.00000177,0
 .00000787,0.00000888,-0.00000572,-0.00001045,0.00000177,0.00001986,-0.
 00001159,0.00000502,0.00000692,0.00000737,0.00000423,-0.00000264,-0.00
 000720,0.00000442,-0.00000661,-0.00000602,0.00000826,0.00000024,-0.000
 00280,0.00001267,0.00000091,0.00000252,0.00000142,0.00000970,0.0000058
 0,-0.00000588,0.00000494,-0.00000164,-0.00000245,-0.00001051,-0.000000
 34,-0.00000762,-0.00000306,0.00001576,0.00001009,-0.00001116,-0.000037
 57,0.00000131,-0.00000637,-0.00000481,0.00000034,0.00000657,-0.0000166
 7,-0.00000220,-0.00000741,0.00001270,0.00000765,0.00000889,-0.00002973
 ,0.00000371,-0.00000346,0.00001716\\\@


 TIMES HAVE CHANGED. IN THE BIBLE WHEN AN ASS
 SPOKE IT WAS CONSIDERED A MIRACLE.
 Job cpu time:       2 days  9 hours 42 minutes 57.8 seconds.
 File lengths (MBytes):  RWF=  10017 Int=      0 D2E=      0 Chk=     58 Scr=      1
 Normal termination of Gaussian 09 at Thu Mar  7 20:40:06 2019.
