 Entering Gaussian System, Link 0=g09
 Input=PN_DQ_sulflower8_699.gjf
 Output=PN_DQ_sulflower8_699.log
 Initial command:
 /opt/local/g09/l1.exe "/home/scratch/vidal/Gau-21753.inp" -scrdir="/home/scratch/vidal/"
 Default is to use a total of  16 processors:
                               16 via shared-memory
                                1 via Linda
 Entering Link 1 = /opt/local/g09/l1.exe PID=     21754.
  
 Copyright (c) 1988,1990,1992,1993,1995,1998,2003,2009,2013,
            Gaussian, Inc.  All Rights Reserved.
  
 This is part of the Gaussian(R) 09 program.  It is based on
 the Gaussian(R) 03 system (copyright 2003, Gaussian, Inc.),
 the Gaussian(R) 98 system (copyright 1998, Gaussian, Inc.),
 the Gaussian(R) 94 system (copyright 1995, Gaussian, Inc.),
 the Gaussian 92(TM) system (copyright 1992, Gaussian, Inc.),
 the Gaussian 90(TM) system (copyright 1990, Gaussian, Inc.),
 the Gaussian 88(TM) system (copyright 1988, Gaussian, Inc.),
 the Gaussian 86(TM) system (copyright 1986, Carnegie Mellon
 University), and the Gaussian 82(TM) system (copyright 1983,
 Carnegie Mellon University). Gaussian is a federally registered
 trademark of Gaussian, Inc.
  
 This software contains proprietary and confidential information,
 including trade secrets, belonging to Gaussian, Inc.
  
 This software is provided under written license and may be
 used, copied, transmitted, or stored only in accord with that
 written license.
  
 The following legend is applicable only to US Government
 contracts under FAR:
  
                    RESTRICTED RIGHTS LEGEND
  
 Use, reproduction and disclosure by the US Government is
 subject to restrictions as set forth in subparagraphs (a)
 and (c) of the Commercial Computer Software - Restricted
 Rights clause in FAR 52.227-19.
  
 Gaussian, Inc.
 340 Quinnipiac St., Bldg. 40, Wallingford CT 06492
  
  
 ---------------------------------------------------------------
 Warning -- This program may not be used in any manner that
 competes with the business of Gaussian, Inc. or will provide
 assistance to any competitor of Gaussian, Inc.  The licensee
 of this program is prohibited from giving any competitor of
 Gaussian, Inc. access to this program.  By using this program,
 the user acknowledges that Gaussian, Inc. is engaged in the
 business of creating and licensing software in the field of
 computational chemistry and represents and warrants to the
 licensee that it is not a competitor of Gaussian, Inc. and that
 it will not use this program in any manner prohibited above.
 ---------------------------------------------------------------
  

 Cite this work as:
 Gaussian 09, Revision D.01,
 M. J. Frisch, G. W. Trucks, H. B. Schlegel, G. E. Scuseria, 
 M. A. Robb, J. R. Cheeseman, G. Scalmani, V. Barone, B. Mennucci, 
 G. A. Petersson, H. Nakatsuji, M. Caricato, X. Li, H. P. Hratchian, 
 A. F. Izmaylov, J. Bloino, G. Zheng, J. L. Sonnenberg, M. Hada, 
 M. Ehara, K. Toyota, R. Fukuda, J. Hasegawa, M. Ishida, T. Nakajima, 
 Y. Honda, O. Kitao, H. Nakai, T. Vreven, J. A. Montgomery, Jr., 
 J. E. Peralta, F. Ogliaro, M. Bearpark, J. J. Heyd, E. Brothers, 
 K. N. Kudin, V. N. Staroverov, T. Keith, R. Kobayashi, J. Normand, 
 K. Raghavachari, A. Rendell, J. C. Burant, S. S. Iyengar, J. Tomasi, 
 M. Cossi, N. Rega, J. M. Millam, M. Klene, J. E. Knox, J. B. Cross, 
 V. Bakken, C. Adamo, J. Jaramillo, R. Gomperts, R. E. Stratmann, 
 O. Yazyev, A. J. Austin, R. Cammi, C. Pomelli, J. W. Ochterski, 
 R. L. Martin, K. Morokuma, V. G. Zakrzewski, G. A. Voth, 
 P. Salvador, J. J. Dannenberg, S. Dapprich, A. D. Daniels, 
 O. Farkas, J. B. Foresman, J. V. Ortiz, J. Cioslowski, 
 and D. J. Fox, Gaussian, Inc., Wallingford CT, 2013.
 
 ******************************************
 Gaussian 09:  EM64L-G09RevD.01 24-Apr-2013
                 9-May-2019 
 ******************************************
 ----------------------------------------------------------------------
 # freq=roa cphf=rdfreq wb97xd/def2svp nosymm integral=ultrafinegrid sc
 f=tight
 ----------------------------------------------------------------------
 1/10=4,30=1,38=1,83=21/1,3;
 2/12=2,15=1,17=6,18=5,40=1/2;
 3/5=43,7=101,11=2,16=1,25=1,30=1,36=2,71=2,74=-58,75=-5,140=1/1,2,3;
 4//1;
 5/5=2,32=2,38=5,98=1/2;
 8/6=4,10=90,11=11/1;
 10/13=10,15=4,31=1,49=111,72=3/2;
 11/6=3,8=1,9=11,15=111,16=1,31=1/1,2,10;
 10/6=1,31=1,49=111/2;
 6/7=2,8=2,9=2,10=2,18=1,28=1/1;
 7/8=1,10=1,25=1,30=1/1,2,3,16;
 1/10=4,30=1/3;
 99//99;
 -----
 Title
 -----
 Symbolic Z-matrix:
 Charge =  2 Multiplicity = 1
 C                     0.32041   1.96141  -1.04775 
 C                     1.50439   1.2349   -0.87484 
 C                     1.82957  -0.12875  -0.80384 
 C                     1.11128  -1.32581  -0.89652 
 C                    -0.22232  -1.66345  -1.16658 
 C                    -1.4067   -0.93578  -1.34105 
 C                    -1.7388    0.42447  -1.36581 
 C                    -1.02558   1.62357  -1.2254 
 P                     3.54717  -2.02046  -0.27478 
 P                     4.0409    1.1504   -0.2926 
 P                     2.1747    3.74786  -0.59615 
 P                    -0.9781    4.22913  -1.00513 
 P                    -3.53154   2.31617  -1.39128 
 P                    -4.00298  -0.85355  -1.55845 
 P                    -2.11741  -3.45571  -1.36857 
 P                     1.0076   -3.93895  -0.76712 
 C                    -1.08135   0.29361   2.03064 
 N                    -1.8416   -0.84305   1.94074 
 C                    -3.18024  -0.78519   1.73964 
 C                    -3.83965   0.42197   1.64998 
 C                    -3.09986   1.60371   1.72228 
 C                    -1.71215   1.52395   1.90986 
 C                     0.37538   0.16807   2.27991 
 N                     0.86929  -1.03855   2.69339 
 C                    -0.07377  -2.10417   3.05789 
 C                    -1.19471  -2.15864   2.05459 
 C                     1.25272   1.23425   2.14638 
 C                     2.61606   1.08159   2.44847 
 C                     3.08651  -0.17879   2.82499 
 C                     2.19473  -1.22356   2.91772 
 H                    -3.70232  -1.74179   1.6929 
 H                    -4.92313   0.42791   1.52753 
 H                    -3.59436   2.57492   1.71745 
 H                    -1.13647   2.44397   2.00373 
 H                     0.45863  -3.0625    3.05965 
 H                    -0.44404  -1.90826   4.07692 
 H                    -1.94444  -2.89391   2.36841 
 H                    -0.8123   -2.45615   1.07042 
 H                     0.8889    2.20975   1.82434 
 H                     3.2701    1.95304   2.46149 
 H                     4.13869  -0.35367   3.05211 
 H                     2.49582  -2.22167   3.238 
 N                    -3.08408   0.62918  -1.47455 
 N                    -2.50366  -1.74321  -1.44066 
 N                    -0.43995  -3.0151   -1.1265 
 N                     1.88745  -2.42219  -0.64592 
 N                     3.14164  -0.3344   -0.48683 
 N                     2.57565   2.04266  -0.63207 
 N                     0.50578   3.30796  -0.89356 
 N                    -1.83876   2.71991  -1.22631 
 
 Using perturbation frequencies:    0.065184

 GradGradGradGradGradGradGradGradGradGradGradGradGradGradGradGradGradGrad
 Berny optimization.
 Initialization pass.
 Trust Radius=3.00D-01 FncErr=1.00D-07 GrdErr=1.00D-07
 Number of steps in this run=      2 maximum allowed number of steps=      2.
 GradGradGradGradGradGradGradGradGradGradGradGradGradGradGradGradGradGrad

                          Input orientation:                          
 ---------------------------------------------------------------------
 Center     Atomic      Atomic             Coordinates (Angstroms)
 Number     Number       Type             X           Y           Z
 ---------------------------------------------------------------------
      1          6           0        0.320407    1.961407   -1.047751
      2          6           0        1.504390    1.234904   -0.874843
      3          6           0        1.829565   -0.128747   -0.803844
      4          6           0        1.111282   -1.325813   -0.896524
      5          6           0       -0.222323   -1.663453   -1.166577
      6          6           0       -1.406697   -0.935783   -1.341054
      7          6           0       -1.738799    0.424469   -1.365807
      8          6           0       -1.025576    1.623573   -1.225398
      9         15           0        3.547171   -2.020459   -0.274784
     10         15           0        4.040901    1.150395   -0.292600
     11         15           0        2.174704    3.747861   -0.596151
     12         15           0       -0.978102    4.229127   -1.005132
     13         15           0       -3.531540    2.316173   -1.391284
     14         15           0       -4.002979   -0.853547   -1.558447
     15         15           0       -2.117405   -3.455705   -1.368573
     16         15           0        1.007604   -3.938950   -0.767115
     17          6           0       -1.081351    0.293609    2.030640
     18          7           0       -1.841600   -0.843054    1.940737
     19          6           0       -3.180241   -0.785192    1.739640
     20          6           0       -3.839651    0.421972    1.649975
     21          6           0       -3.099863    1.603711    1.722282
     22          6           0       -1.712145    1.523952    1.909856
     23          6           0        0.375381    0.168073    2.279907
     24          7           0        0.869289   -1.038549    2.693391
     25          6           0       -0.073767   -2.104170    3.057886
     26          6           0       -1.194711   -2.158640    2.054587
     27          6           0        1.252718    1.234248    2.146377
     28          6           0        2.616058    1.081591    2.448468
     29          6           0        3.086509   -0.178790    2.824991
     30          6           0        2.194730   -1.223563    2.917718
     31          1           0       -3.702324   -1.741794    1.692900
     32          1           0       -4.923125    0.427913    1.527531
     33          1           0       -3.594357    2.574919    1.717453
     34          1           0       -1.136472    2.443968    2.003732
     35          1           0        0.458629   -3.062496    3.059652
     36          1           0       -0.444036   -1.908255    4.076924
     37          1           0       -1.944440   -2.893909    2.368414
     38          1           0       -0.812296   -2.456151    1.070417
     39          1           0        0.888899    2.209750    1.824342
     40          1           0        3.270100    1.953041    2.461490
     41          1           0        4.138694   -0.353666    3.052112
     42          1           0        2.495815   -2.221669    3.237996
     43          7           0       -3.084079    0.629181   -1.474546
     44          7           0       -2.503659   -1.743211   -1.440659
     45          7           0       -0.439952   -3.015103   -1.126503
     46          7           0        1.887452   -2.422186   -0.645919
     47          7           0        3.141641   -0.334398   -0.486825
     48          7           0        2.575647    2.042656   -0.632069
     49          7           0        0.505776    3.307955   -0.893561
     50          7           0       -1.838762    2.719905   -1.226308
 ---------------------------------------------------------------------
                    Distance matrix (angstroms):
                    1          2          3          4          5
     1  C    0.000000
     2  C    1.399828   0.000000
     3  C    2.589554   1.403682   0.000000
     4  C    3.384401   2.590806   1.399102   0.000000
     5  C    3.667190   3.386314   2.587884   1.401939   0.000000
     6  C    3.385650   3.661101   3.378357   2.586493   1.400960
     7  C    2.589144   3.378776   3.654459   3.377377   2.588206
     8  C    1.399057   2.583540   3.376413   3.656938   3.384260
     9  P    5.183121   3.889783   2.609339   2.608189   3.889966
    10  P    3.882019   2.603850   2.605299   3.883169   5.182341
    11  P    2.614150   2.615711   3.897480   5.192616   5.945876
    12  P    2.613522   3.891672   5.187926   5.935881   5.943043
    13  P    3.883474   5.176528   5.921500   5.921541   5.180621
    14  P    5.184250   5.929591   5.925650   5.178498   3.886241
    15  P    5.949030   5.946678   5.192893   3.896625   2.616162
    16  P    5.946865   5.198766   3.898027   2.618393   2.617284
    17  C    3.771335   4.001740   4.084864   3.999807   3.845805
    18  N    4.633609   4.841596   4.639010   4.123423   3.598682
    19  C    5.250513   5.732545   5.656712   5.065452   4.238717
    20  C    5.191692   5.966099   6.201978   5.835336   5.036569
    21  C    4.415798   5.299078   5.803618   5.759687   5.224950
    22  C    3.615256   4.264293   4.758076   4.895781   4.673709
    23  C    3.780526   3.516424   3.422320   3.586497   3.948416
    24  N    4.826712   4.278345   3.739054   3.609511   4.059738
    25  C    5.791420   5.395030   4.736869   4.200897   4.249987
    26  C    5.375395   5.232862   4.630047   3.836699   3.400977
    27  C    3.405939   3.031684   3.300653   3.979091   4.641991
    28  C    4.274066   3.507664   3.558233   4.387359   5.353524
    29  C    5.218227   4.265021   3.840684   4.366561   5.393070
    30  C    5.420523   4.572105   3.896407   3.966454   4.766247
    31  H    6.116145   6.524102   6.279924   5.481693   4.504792
    32  H    6.039728   6.909094   7.165473   6.735404   5.807716
    33  H    4.831990   5.874765   6.563968   6.647678   6.136126
    34  H    3.415686   4.089276   4.826875   5.260716   5.268533
    35  H    6.490722   5.919587   5.041126   4.369594   4.503557
    36  H    6.466912   6.180276   5.670785   5.243419   5.253893
    37  H    6.354039   6.281739   5.652650   4.738795   4.120178
    38  H    5.028367   4.772312   3.988620   2.974336   2.445523
    39  H    2.938329   2.935090   3.641536   4.466853   5.018178
    40  H    4.584270   3.842469   4.131754   5.166008   6.199913
    41  H    6.061993   4.988395   4.500118   5.069716   6.207362
    42  H    6.371668   5.463174   4.600074   4.451263   5.205780
    43  N    3.680694   4.666968   5.016791   4.664458   3.679764
    44  N    4.674818   5.025313   4.667854   3.679416   2.299125
    45  N    5.034878   4.680423   3.685901   2.304977   1.369644
    46  N    4.672578   3.684216   2.299599   1.366483   2.301719
    47  N    3.680315   2.300838   1.365407   2.296326   3.680313
    48  N    2.294668   1.363449   2.302420   3.682511   4.674353
    49  N    1.367965   2.301113   3.683936   4.673163   5.031855
    50  N    2.295477   3.674972   4.663681   5.017903   4.672287
                    6          7          8          9         10
     6  C    0.000000
     7  C    1.400425   0.000000
     8  C    2.590161   1.402231   0.000000
     9  P    5.182110   5.925326   5.923905   0.000000
    10  P    5.926864   5.923147   5.173316   3.209112   0.000000
    11  P    5.942881   5.191610   3.892344   5.938052   3.212735
    12  P    5.193538   3.896687   2.615279   7.750408   5.930993
    13  P    3.884932   2.606360   2.605200   8.376222   7.740026
    14  P    2.606665   2.607095   3.887412   7.746886   8.385831
    15  P    2.618372   3.898602   5.197274   5.945059   7.765218
    16  P    3.895801   5.190432   5.940160   3.220621   5.943693
    17  C    3.603550   3.461967   3.517627   5.665078   5.689375
    18  N    3.311781   3.542657   4.095675   5.944213   6.600413
    19  C    3.557922   3.631093   4.385907   7.130348   7.747347
    20  C    4.087667   3.675395   4.198885   8.014693   8.149067
    21  C    4.324334   3.574829   3.604425   7.829811   7.433422
    22  C    4.088033   3.455364   3.211093   6.707899   6.171539
    23  C    4.183976   4.222171   4.045779   4.623459   4.584625
    24  N    4.633295   5.041789   5.102383   4.116462   4.875114
    25  C    4.742626   5.360542   5.757476   4.921879   6.224825
    26  C    3.615342   4.320599   5.009196   5.284932   6.623491
    27  C    4.893230   4.684053   4.087917   4.660435   3.705348
    28  C    5.883267   5.826258   5.201205   4.231523   3.090043
    29  C    6.173967   6.419525   6.046768   3.634908   3.520933
    30  C    5.584822   6.044605   5.970089   3.557557   4.398882
    31  H    3.889015   4.231290   5.196839   7.516955   8.500853
    32  H    4.738535   4.302482   4.919259   8.999377   9.175436
    33  H    5.144448   4.192138   4.020456   8.722840   8.022889
    34  H    4.762702   3.974288   3.333561   6.859975   5.809618
    35  H    5.231497   6.047504   6.521025   4.662981   6.466739
    36  H    5.588104   6.061463   6.397391   5.905903   6.968697
    37  H    4.228898   4.999833   5.845292   6.156882   7.698162
    38  H    2.912048   3.884787   4.686193   4.583050   6.198267
    39  H    5.018353   4.502119   3.648251   5.419170   3.941928
    40  H    6.684091   6.486432   5.670496   4.832460   2.970419
    41  H    7.098600   7.393810   6.991155   3.767802   3.668632
    42  H    6.152301   6.791834   6.863524   3.672255   5.120861
    43  N    2.297943   1.365104   2.299636   7.241098   7.241133
    44  N    1.365718   2.299880   3.683246   6.168361   7.247224
    45  N    2.303085   3.684417   4.676543   4.196652   6.174529
    46  N    3.680221   4.665981   5.018934   1.747510   4.186348
    47  N    4.666771   5.016690   4.663136   1.747060   1.746712
    48  N    5.023228   4.665977   3.673755   4.192901   1.748811
    49  N    4.676229   3.684511   2.300499   6.166439   4.184893
    50  N    3.682920   2.301843   1.364997   7.237729   6.156753
                   11         12         13         14         15
    11  P    0.000000
    12  P    3.215442   0.000000
    13  P    5.936597   3.213806   0.000000
    14  P    7.762908   5.940506   3.208944   0.000000
    15  P    8.420819   7.777322   5.942632   3.219110   0.000000
    16  P    7.776787   8.409350   7.753707   5.937328   3.218844
    17  C    5.425291   4.971406   4.669449   4.767958   5.165793
    18  N    6.606285   5.928810   4.892747   4.112901   4.225346
    19  C    7.394588   6.125895   4.420923   3.399845   4.233468
    20  C    7.230428   5.452750   3.596135   3.456530   5.207124
    21  C    6.147647   4.339754   3.223079   4.197251   6.009684
    22  C    5.131612   4.044001   3.851667   4.788481   5.975727
    23  C    4.931952   5.395883   5.775466   5.911574   5.714644
    24  N    5.952723   6.696293   6.877938   6.469262   5.591291
    25  C    7.256299   7.578693   7.161755   6.189773   5.059312
    26  C    7.298364   7.086069   6.112180   4.758535   3.775151
    27  C    3.832723   4.886498   6.047705   6.760692   6.760789
    28  C    4.071056   5.895110   7.352608   7.975699   7.586997
    29  C    5.287172   7.114818   8.234099   8.362456   7.443445
    30  C    6.087917   7.428825   7.992959   7.654055   6.476825
    31  H    8.361550   7.095961   5.099848   3.383878   3.849945
    32  H    8.118575   6.035463   3.744531   3.465843   5.598390
    33  H    6.325395   4.122337   3.120119   4.759503   6.933496
    34  H    4.407200   3.502162   4.156780   5.637339   6.865917
    35  H    7.917750   8.470799   8.041291   6.790599   5.138068
    36  H    7.790191   7.986237   7.568340   6.748029   5.903237
    37  H    8.358774   7.940546   6.618094   4.880666   3.782936
    38  H    7.084447   7.002024   6.019081   4.433929   2.941274
    39  H    3.142907   3.945820   5.467345   6.690106   7.164492
    40  H    3.710854   5.936771   7.825474   8.771232   8.541026
    41  H    5.830060   7.977770   9.257662   9.369844   8.264616
    42  H    7.102048   8.466700   8.851624   8.192188   6.635143
    43  N    6.176774   4.197035   1.747311   1.746396   4.199045
    44  N    7.263067   6.179468   4.187789   1.747380   1.756993
    45  N    7.270171   7.265205   6.168511   4.189757   1.751164
    46  N    6.176931   7.251234   7.236925   6.163644   4.198722
    47  N    4.196636   6.169820   7.237052   7.243168   6.178803
    48  N    1.752076   4.189148   6.160272   7.247378   7.266302
    49  N    1.751368   1.750114   4.187037   6.171632   7.270063
    50  N    4.190668   1.751401   1.748060   4.190908   6.183530
                   16         17         18         19         20
    16  P    0.000000
    17  C    5.486868   0.000000
    18  N    5.003499   1.370425   0.000000
    19  C    5.811029   2.377779   1.354898   0.000000
    20  C    6.953837   2.787401   2.382654   1.378443   0.000000
    21  C    7.334131   2.426076   2.760001   2.390318   1.396074
    22  C    6.663821   1.387888   2.370745   2.741610   2.410017
    23  C    5.152833   1.483227   2.460166   3.720625   4.269400
    24  N    4.517362   2.453341   2.820217   4.168036   5.039440
    25  C    4.377946   2.796391   2.442062   3.623211   4.748209
    26  C    3.997711   2.454985   1.470440   2.434724   3.717388
    27  C    5.942263   2.519142   3.732596   4.888220   5.180582
    28  C    6.175187   3.803463   4.881881   6.130612   6.538262
    29  C    5.600346   4.269100   5.050684   6.388886   7.050764
    30  C    4.728698   3.717718   4.170280   5.519995   6.381905
    31  H    5.750008   3.335631   2.081214   1.090799   2.168544
    32  H    7.714171   3.876904   3.358853   2.134071   1.090387
    33  H    8.353539   3.408469   3.847668   3.385606   2.167926
    34  H    7.281229   2.151234   3.362393   3.830693   3.394229
    35  H    3.964050   3.833255   3.386583   4.491093   5.709984
    36  H    5.449376   3.072727   2.766068   3.769746   4.780193
    37  H    4.431503   3.319531   2.097496   2.523737   3.886264
    38  H    2.981150   2.924996   2.102143   2.974412   4.217150
    39  H    6.673549   2.756091   4.097412   5.053192   5.058235
    40  H    7.089311   4.677015   5.849684   7.044564   7.317875
    41  H    6.102826   5.358287   6.102341   7.448195   8.137665
    42  H    4.604860   4.536568   4.732508   6.043687   7.046189
    43  N    6.173342   4.050908   3.921146   3.512932   3.221251
    44  N    4.195700   4.268666   3.561242   3.389670   4.003113
    45  N    1.754443   4.618064   4.011281   4.549336   5.574968
    46  N    1.757667   4.832525   4.805234   5.835422   6.794120
    47  N    4.198270   4.956378   5.566370   6.717630   7.340058
    48  N    6.185193   4.850033   5.870155   6.837542   6.999314
    49  N    7.265360   4.489566   5.547458   6.105270   5.803551
    50  N    7.256239   4.131379   4.767060   4.783526   4.190114
                   21         22         23         24         25
    21  C    0.000000
    22  C    1.402607   0.000000
    23  C    3.801227   2.516567   0.000000
    24  N    4.866082   3.720771   1.367790   0.000000
    25  C    4.968851   4.143130   2.443373   1.468931   0.000000
    26  C    4.230286   3.721581   2.815946   2.433674   1.505354
    27  C    4.388772   2.988358   1.387184   2.368934   3.706136
    28  C    5.785474   4.383963   2.425605   2.757931   4.213742
    29  C    6.531805   5.173382   2.787050   2.381715   3.707920
    30  C    6.120070   4.881424   2.377706   1.356962   2.437457
    31  H    3.399445   3.830533   4.540908   4.732355   3.893704
    32  H    2.178236   3.414362   5.357962   6.087840   5.680643
    33  H    1.089859   2.164318   4.676332   5.825268   6.007095
    34  H    2.154101   1.089331   2.746210   4.077577   4.788125
    35  H    6.018713   5.202864   3.324381   2.097415   1.096283
    36  H    4.993161   4.252567   2.865633   2.096515   1.101780
    37  H    4.688398   4.447666   3.842543   3.386007   2.144406
    38  H    4.705355   4.166006   3.124099   2.733380   2.149267
    39  H    4.035830   2.691294   2.153993   3.362600   4.588928
    40  H    6.422218   5.031022   3.405654   3.842822   5.291323
    41  H    7.615542   6.250001   3.876988   3.359577   4.561702
    42  H    6.945685   5.787967   3.335422   2.083736   2.578565
    43  N    3.342105   3.759920   5.126051   5.981818   6.089017
    44  N    4.643441   4.746241   5.077843   5.381793   5.125580
    45  N    6.043521   5.607225   4.732970   4.495828   4.298023
    46  N    6.832974   5.921241   4.190019   3.755276   4.203057
    47  N    6.898753   5.723354   3.944550   3.971547   5.102540
    48  N    6.160118   5.011546   4.103028   4.843982   6.150718
    49  N    4.769456   3.995120   4.466180   5.647164   6.726136
    50  N    3.395651   3.358848   4.869068   6.068242   6.688888
                   26         27         28         29         30
    26  C    0.000000
    27  C    4.184498   0.000000
    28  C    5.017589   1.404727   0.000000
    29  C    4.779349   2.412464   1.397016   0.000000
    30  C    3.620452   2.742843   2.389864   1.376742   0.000000
    31  H    2.567626   5.797837   6.961633   7.057823   6.045162
    32  H    4.568273   6.258928   7.623300   8.136690   7.438001
    33  H    5.317757   5.047327   6.429126   7.310508   7.027278
    34  H    4.603257   2.681790   4.016882   5.038541   5.038160
    35  H    2.135567   4.463928   4.711847   3.908526   2.532956
    36  H    2.171647   4.059718   4.577688   4.125910   2.962372
    37  H    1.095993   5.226165   6.050550   5.735049   4.497168
    38  H    1.096971   4.363601   5.115492   4.844129   3.738181
    39  H    4.845335   1.089805   2.155308   3.396456   3.832532
    40  H    6.083258   2.164668   1.089663   2.170378   3.384579
    41  H    5.718234   3.416238   2.177790   1.090531   2.133958
    42  H    3.876134   3.831486   3.398432   2.166298   1.090617
    43  N    4.878159   5.681989   6.934427   7.564059   7.112698
    44  N    3.755352   5.986857   7.022558   7.203691   6.429646
    45  N    3.379722   5.624399   6.237188   6.007903   5.148484
    46  N    4.106327   4.644278   4.731020   4.303229   3.772350
    47  N    5.347016   3.600338   3.301092   3.315928   3.643922
    48  N    6.251768   3.181733   3.227226   4.140902   4.838830
    49  N    6.439479   3.754918   4.536424   5.713598   6.157359
    50  N    5.914328   4.810346   6.002789   7.005266   6.999496
                   31         32         33         34         35
    31  H    0.000000
    32  H    2.495061   0.000000
    33  H    4.318133   2.532060   0.000000
    34  H    4.919433   4.316247   2.477963   0.000000
    35  H    4.574472   6.594970   7.071679   5.829276   0.000000
    36  H    4.040757   5.658562   5.965775   4.870261   1.783793
    37  H    2.207678   4.540281   5.749266   5.410983   2.506187
    38  H    3.041390   5.042390   5.785342   4.998733   2.437203
    39  H    6.058986   6.086268   4.499373   2.046745   5.432099
    40  H    7.928255   8.386133   6.932611   4.457402   5.780811
    41  H    8.078114   9.222352   8.376037   6.062444   4.569540
    42  H    6.405820   8.061430   7.899969   6.040288   2.211091
    43  N    4.004555   3.526339   3.772948   4.380073   6.836535
    44  N    3.354995   4.402016   5.459811   5.591556   5.546933
    45  N    4.495934   6.244765   7.020449   6.331269   4.281774
    46  N    6.097426   7.696162   7.785038   6.312228   4.022784
    47  N    7.319277   8.347407   7.661373   5.676658   5.217142
    48  N    7.690284   7.968867   6.623632   4.570375   6.646288
    49  N    7.063841   6.605247   4.915875   3.440604   7.497517
    50  N    5.648132   4.727595   3.430578   3.317003   7.555370
                   36         37         38         39         40
    36  H    0.000000
    37  H    2.478252   0.000000
    38  H    3.078131   1.777126   0.000000
    39  H    4.879427   5.862692   5.023256   0.000000
    40  H    5.595895   7.119903   6.167821   2.478301   0.000000
    41  H    4.946554   6.627578   5.732352   4.317371   2.534598
    42  H    3.073232   4.574270   3.961941   4.921186   4.316327
    43  N    6.650355   5.336598   4.599686   5.400501   7.590822
    44  N    5.891775   4.018192   3.110385   6.147811   7.888304
    45  N    5.319848   3.806917   2.297286   6.145927   7.163842
    46  N    5.291995   4.898175   3.199313   5.343606   5.541689
    47  N    6.013477   6.369592   4.749785   4.109626   3.733824
    48  N    6.848562   7.335105   5.883526   2.984459   3.171814
    49  N    7.267511   7.423419   6.230525   2.956321   4.553421
    50  N    7.175611   6.666941   5.755009   4.123937   6.347315
                   41         42         43         44         45
    41  H    0.000000
    42  H    2.494602   0.000000
    43  N    8.580505   7.840320   0.000000
    44  N    8.138592   6.863926   2.442597   0.000000
    45  N    6.745967   5.319503   4.515899   2.444441   0.000000
    46  N    4.798156   3.936383   5.891823   4.513809   2.449351
    47  N    3.676760   4.225302   6.376807   5.896097   4.519201
    48  N    4.664618   5.759188   5.894080   6.386388   5.909249
    49  N    6.494143   7.183785   4.516684   5.905107   6.397634
    50  N    7.967540   7.945925   2.446132   4.517459   5.903977
                   46         47         48         49         50
    46  N    0.000000
    47  N    2.440729   0.000000
    48  N    4.517590   2.447822   0.000000
    49  N    5.899565   4.514416   2.440026   0.000000
    50  N    6.376725   5.888974   4.505418   2.439955   0.000000
 Symmetry turned off by external request.
 Stoichiometry    C20H12N10P8(2+)
 Framework group  C1[X(C20H12N10P8)]
 Deg. of freedom   144
 Full point group                 C1      NOp   1
 Rotational constants (GHZ):      0.1088888      0.0971122      0.0715038
 Standard basis: def2SVP (5D, 7F)
   624 basis functions,  1130 primitive gaussians,   662 cartesian basis functions
   160 alpha electrons      160 beta electrons
       nuclear repulsion energy      6465.1824362846 Hartrees.
 NAtoms=   50 NActive=   50 NUniq=   50 SFac= 1.00D+00 NAtFMM=   60 NAOKFM=F Big=F
 Integral buffers will be    131072 words long.
 Raffenetti 2 integral format.
 Two-electron integral symmetry is turned off.
 Nuclear repulsion after empirical dispersion term =     6465.1064014834 Hartrees.
 One-electron integrals computed using PRISM.
   1 Symmetry operations used in ECPInt.
 ECPInt:  NShTT=   39340 NPrTT=  159940 LenC2=   35350 LenP2D=   91145.
 LDataN:  DoStor=T MaxTD1= 4 Len=   56
 NBasis=   624 RedAO= T EigKep=  5.69D-05  NBF=   624
 NBsUse=   624 1.00D-06 EigRej= -1.00D+00 NBFU=   624
 ExpMin= 1.05D-01 ExpMax= 8.00D+03 ExpMxC= 1.20D+03 IAcc=3 IRadAn=         5 AccDes= 0.00D+00
 Harris functional with IExCor= 4639 and IRadAn=       5 diagonalized for initial guess.
 HarFok:  IExCor= 4639 AccDes= 0.00D+00 IRadAn=         5 IDoV= 1 UseB2=F ITyADJ=14
 ICtDFT=  3500011 ScaDFX=  1.000000  1.000000  1.000000  1.000000
 FoFCou: FMM=F IPFlag=           0 FMFlag=      100000 FMFlg1=           0
         NFxFlg=           0 DoJE=T BraDBF=F KetDBF=T FulRan=T
         wScrn=  0.000000 ICntrl=     500 IOpCl=  0 I1Cent=   200000004 NGrid=           0
         NMat0=    1 NMatS0=      1 NMatT0=    0 NMatD0=    1 NMtDS0=    0 NMtDT0=    0
 Symmetry not used in FoFCou.
 Requested convergence on RMS density matrix=1.00D-08 within 128 cycles.
 Requested convergence on MAX density matrix=1.00D-06.
 Requested convergence on             energy=1.00D-06.
 No special actions if energy rises.
 Integral accuracy reduced to 1.0D-05 until final iterations.
 Initial convergence to 1.0D-05 achieved.  Increase integral accuracy.
 SCF Done:  E(RwB97XD) =  -4044.94374680     A.U. after   23 cycles
            NFock= 23  Conv=0.59D-08     -V/T= 2.0051
 DoSCS=F DFT=T ScalE2(SS,OS)=  1.000000  1.000000
 Range of M.O.s used for correlation:     1   624
 NBasis=   624 NAE=   160 NBE=   160 NFC=     0 NFV=     0
 NROrb=    624 NOA=   160 NOB=   160 NVA=   464 NVB=   464

 **** Warning!!: The largest alpha MO coefficient is  0.18960949D+02

          Differentiating once with respect to electric field.
                with respect to dipole field.
                with respect to quadrupole field.
          Differentiating once with respect to magnetic field using GIAOs.
          Electric field/nuclear overlap derivatives assumed to be zero.
 FoFCou: FMM=F IPFlag=           0 FMFlag=      100000 FMFlg1=           0
         NFxFlg=           0 DoJE=F BraDBF=F KetDBF=T FulRan=T
         wScrn=  0.000000 ICntrl=    6100 IOpCl=  0 I1Cent=           7 NGrid=          50
         NMat0=    1 NMatS0=      1 NMatT0=    0 NMatD0=    1 NMtDS0=    0 NMtDT0=    0
 Symmetry not used in FoFCou.
   1 Symmetry operations used in ECPInt.
 ECPInt:  NShTT=   39340 NPrTT=  159940 LenC2=   39341 LenP2D=  159940.
 LDataN:  DoStor=T MaxTD1= 5 Len=  102
 FoFJK:  IHMeth= 1 ICntrl=    6127 DoSepK=T KAlg= 0 I1Cent=   0 FoldK=F
 IRaf=         1 NMat=   1 IRICut=       1 DoRegI=T DoRafI=F ISym2E= 0.
 CalDSu exits because no D1Ps are significant.
          There are    12 degrees of freedom in the 1st order CPHF.  IDoFFX=0 NUNeed=    12.
     11 vectors produced by pass  0 Test12= 1.24D-12 8.33D-09 XBig12= 1.00D+00 6.51D-01.
 AX will form    11 AO Fock derivatives at one time.
     11 vectors produced by pass  1 Test12= 1.24D-12 8.33D-09 XBig12= 3.61D-01 2.10D-01.
     11 vectors produced by pass  2 Test12= 1.24D-12 8.33D-09 XBig12= 1.46D-01 1.80D-01.
     11 vectors produced by pass  3 Test12= 1.24D-12 8.33D-09 XBig12= 8.94D-02 1.13D-01.
     11 vectors produced by pass  4 Test12= 1.24D-12 8.33D-09 XBig12= 2.30D-02 4.52D-02.
     11 vectors produced by pass  5 Test12= 1.24D-12 8.33D-09 XBig12= 4.57D-03 1.76D-02.
     11 vectors produced by pass  6 Test12= 1.24D-12 8.33D-09 XBig12= 9.40D-04 6.02D-03.
     11 vectors produced by pass  7 Test12= 1.24D-12 8.33D-09 XBig12= 1.89D-04 2.21D-03.
     11 vectors produced by pass  8 Test12= 1.24D-12 8.33D-09 XBig12= 2.48D-05 8.95D-04.
     11 vectors produced by pass  9 Test12= 1.24D-12 8.33D-09 XBig12= 4.44D-06 4.12D-04.
     11 vectors produced by pass 10 Test12= 1.24D-12 8.33D-09 XBig12= 6.00D-07 1.53D-04.
     11 vectors produced by pass 11 Test12= 1.24D-12 8.33D-09 XBig12= 5.41D-08 4.01D-05.
     11 vectors produced by pass 12 Test12= 1.24D-12 8.33D-09 XBig12= 3.96D-09 1.19D-05.
     11 vectors produced by pass 13 Test12= 1.24D-12 8.33D-09 XBig12= 2.91D-10 3.04D-06.
     11 vectors produced by pass 14 Test12= 1.24D-12 8.33D-09 XBig12= 2.04D-11 8.55D-07.
     11 vectors produced by pass 15 Test12= 1.24D-12 8.33D-09 XBig12= 1.45D-12 1.66D-07.
      7 vectors produced by pass 16 Test12= 1.24D-12 8.33D-09 XBig12= 1.29D-13 5.24D-08.
      2 vectors produced by pass 17 Test12= 1.24D-12 8.33D-09 XBig12= 3.18D-14 1.51D-08.
 InvSVY:  IOpt=1 It=  1 EMax= 6.04D-13
 Solved reduced A of dimension   185 with    12 vectors.
 Isotropic polarizability for W=    0.065184      272.74 Bohr**3.
 Dipole-magnetic dipole polarizability for W=    0.065184:
                 1             2             3 
      1   0.144905D+03 -0.574786D+03  0.971125D+02
      2   0.107598D+04  0.803678D+03  0.524328D+04
      3  -0.327782D+03 -0.187581D+03 -0.152789D+04
 DQ contribution to OR G for W=    0.065184:
                 1             2             3 
      1   0.726507D+03 -0.154688D+04 -0.697557D+03
      2  -0.207300D+03 -0.231073D+03  0.219410D+04
      3   0.517139D+02  0.325485D+03 -0.495434D+03
 Optical Rotation G' tensor for W=    0.065184:
                 1             2             3 
      1  -0.180480D+03 -0.344572D+03 -0.230631D+02
      2  -0.344572D+03 -0.749262D+03 -0.948977D+03
      3  -0.230631D+02 -0.948977D+03  0.350433D+03
 OR G Eigenvalues: -1377.1984  -121.3528   919.2413  Iso=   193.1033
 Eigenvectors:
   (1)   0.252784   0.846584   0.468397
   (2)   0.956976  -0.147489  -0.249887
   (3)   0.142467  -0.511413   0.847443
 w=    0.065184 a.u., Optical Rotation Beta=    193.1033 au.
 Molar Mass =    640.1719 grams/mole, [Alpha] ( 6990.0 A) =     8286.79 deg.
 End of Minotr F.D. properties on file   721 Mask=       B NFrqRd=     1 NDeriv=     1 ND12= 1 LenFil=      39:
 Frequencies=    0.065184
 Property number 1 -- Alpha(-w,w) frequency  1    0.065184:
                 1             2             3 
      1   0.639676D+03 -0.180311D+02  0.231353D+02
      2  -0.180311D+02  0.463195D+03 -0.164328D+03
      3   0.231353D+02 -0.164328D+03 -0.284664D+03
 Property number 2 -- FD Optical Rotation Tensor frequency  1    0.065184:
                 1             2             3 
      1   0.144905D+03 -0.574786D+03  0.971125D+02
      2   0.107598D+04  0.803678D+03  0.524328D+04
      3  -0.327782D+03 -0.187581D+03 -0.152789D+04
 Property number 4 -- D-Q polarizability frequency  1    0.065184:
                 1             2             3 
      1  -0.197472D+03 -0.792218D+00 -0.128534D+03
      2   0.272054D+03  0.623199D+03  0.130741D+04
      3  -0.745826D+02 -0.622407D+03 -0.117888D+04
      4   0.509217D+02 -0.534308D+02 -0.302090D+03
      5   0.787668D+02  0.424417D+03  0.211952D+04
      6  -0.710167D+02 -0.239472D+03  0.751499D+02
 End of Minotr F.D. properties file   722 does not exist.
 End of Minotr F.D. properties file   788 does not exist.
   1 Symmetry operations used in ECPInt.
 ECPInt:  NShTT=   39340 NPrTT=  159940 LenC2=   35350 LenP2D=   91145.
 LDataN:  DoStor=T MaxTD1= 5 Len=  102
 Number of processors reduced to  10 by ecpmxn.
 Symmetrizing basis deriv contribution to polar:
 IMax=3 JMax=2 DiffMx= 0.00D+00
 G2DrvN: will do    51 centers at a time, making    1 passes.
 PxScal for G2LodP:  IOpCl= 0 ISclPx=1 IMOff=     1 NMtTot=    25 NTT=  195000 ScalPx= 1.73D+02
 Calling FoFCou, ICntrl=  3107 FMM=F I1Cent=   0 AccDes= 0.00D+00.
 End of G2Drv F.D. properties on file   721 Mask=       B NFrqRd=     1 NDeriv=     1 ND12= 1 LenFil=      39:
 Frequencies=    0.065184
 Property number 1 -- Alpha(-w,w) frequency  1    0.065184:
                 1             2             3 
      1   0.639676D+03 -0.180311D+02  0.231353D+02
      2  -0.180311D+02  0.463195D+03 -0.164328D+03
      3   0.231353D+02 -0.164328D+03 -0.284664D+03
 Property number 2 -- FD Optical Rotation Tensor frequency  1    0.065184:
                 1             2             3 
      1   0.144905D+03 -0.574786D+03  0.971125D+02
      2   0.107598D+04  0.803678D+03  0.524328D+04
      3  -0.327782D+03 -0.187581D+03 -0.152789D+04
 Property number 4 -- D-Q polarizability frequency  1    0.065184:
                 1             2             3 
      1  -0.197472D+03 -0.792218D+00 -0.128534D+03
      2   0.272054D+03  0.623199D+03  0.130741D+04
      3  -0.745826D+02 -0.622407D+03 -0.117888D+04
      4   0.509217D+02 -0.534308D+02 -0.302090D+03
      5   0.787668D+02  0.424417D+03  0.211952D+04
      6  -0.710167D+02 -0.239472D+03  0.751499D+02
 End of G2Drv F.D. properties on file   722 Mask=       B NFrqRd=     1 NDeriv=   150 ND12= 1 LenFil=    5403:
 Frequencies=    0.065184
 Property number 1 -- Alpha(-w,w) derivatives, frequency  1    0.065184:
                 1             2             3             4             5 
      1  -0.666454D+02 -0.215321D+03 -0.296014D+03 -0.537590D+01  0.157530D+02
      2  -0.215321D+03 -0.220443D+03 -0.910154D+03  0.157530D+02 -0.734451D+02
      3  -0.296014D+03 -0.910154D+03 -0.124589D+04  0.904370D+01 -0.183545D+02
                 6             7             8             9            10 
      1   0.904370D+01 -0.554890D+01 -0.120261D+02 -0.418831D+02  0.650845D+01
      2  -0.183545D+02 -0.120261D+02  0.949118D+02 -0.444994D+01  0.107021D+03
      3   0.565905D+02 -0.418831D+02 -0.444994D+01 -0.304874D+03  0.640456D+02
                11            12            13            14            15 
      1   0.107021D+03  0.640456D+02 -0.986342D+02 -0.223137D+03 -0.455085D+03
      2   0.268070D+02  0.361386D+03 -0.223137D+03 -0.153618D+03 -0.778720D+03
      3   0.361386D+03  0.199776D+03 -0.455085D+03 -0.778720D+03 -0.198987D+04
                16            17            18            19            20 
      1   0.816188D+02  0.591954D+02  0.249516D+03  0.193103D+02  0.416297D+02
      2   0.591954D+02 -0.346229D+02  0.138136D+03  0.416297D+02 -0.280382D+02
      3   0.249516D+03  0.138136D+03  0.911225D+03  0.132147D+03  0.133967D+03
                21            22            23            24            25 
      1   0.132147D+03  0.928842D+02  0.287989D+03  0.480410D+03 -0.531209D+02
      2   0.133967D+03  0.287989D+03  0.211271D+03  0.102995D+04  0.204645D+02
      3   0.573270D+03  0.480410D+03  0.102995D+04  0.219174D+04 -0.150353D+03
                26            27            28            29            30 
      1   0.204645D+02 -0.150353D+03 -0.888032D+02 -0.190842D+03 -0.437833D+03
      2   0.116356D+03  0.115861D+03 -0.190842D+03 -0.110957D+03 -0.728339D+03
      3   0.115861D+03 -0.317300D+03 -0.437833D+03 -0.728339D+03 -0.212292D+04
                31            32            33            34            35 
      1  -0.135112D+02 -0.142842D+03 -0.149258D+03  0.290877D+02 -0.796704D+02
      2  -0.142842D+03 -0.270901D+02 -0.408635D+03 -0.796704D+02 -0.768889D+02
      3  -0.149258D+03 -0.408635D+03 -0.611273D+03  0.113758D+02 -0.171452D+03
                36            37            38            39            40 
      1   0.113758D+02  0.854176D+02  0.250968D+03  0.529446D+03  0.612496D+01
      2  -0.171452D+03  0.250968D+03  0.183492D+03  0.107235D+04 -0.429274D+02
      3   0.122917D+03  0.529446D+03  0.107235D+04  0.287819D+04 -0.806252D+02
                41            42            43            44            45 
      1  -0.429274D+02 -0.806252D+02  0.150488D+02  0.783138D+02  0.106723D+03
      2  -0.677197D+02 -0.313405D+03  0.783138D+02  0.233861D+03  0.421661D+03
      3  -0.313405D+03 -0.789041D+03  0.106723D+03  0.421661D+03  0.484016D+03
                46            47            48            49            50 
      1  -0.343236D+02 -0.155839D+03 -0.272414D+03  0.812501D+02  0.233549D+03
      2  -0.155839D+03 -0.132105D+03 -0.698120D+03  0.233549D+03  0.268887D+03
      3  -0.272414D+03 -0.698120D+03 -0.150761D+04  0.407861D+03  0.103769D+04
                51            52            53            54            55 
      1   0.407861D+03  0.708616D+02  0.449452D+02  0.272026D+03  0.501158D+01
      2   0.103769D+04  0.449452D+02 -0.783819D+02  0.488423D+02 -0.348349D+02
      3   0.208979D+04  0.272026D+03  0.488423D+02  0.944475D+03 -0.622026D+02
                56            57            58            59            60 
      1  -0.348349D+02 -0.622026D+02 -0.664369D+02 -0.273267D+03 -0.414664D+03
      2  -0.302114D+01 -0.133101D+03 -0.273267D+03 -0.216518D+03 -0.103579D+04
      3  -0.133101D+03 -0.347527D+03 -0.414664D+03 -0.103579D+04 -0.205508D+04
                61            62            63            64            65 
      1  -0.641288D+02 -0.301918D+02 -0.184954D+03  0.669623D+02  0.210885D+03
      2  -0.301918D+02  0.117592D+03 -0.154299D+02  0.210885D+03  0.242348D+03
      3  -0.184954D+03 -0.154299D+02 -0.638230D+03  0.348477D+03  0.924005D+03
                66            67            68            69            70 
      1   0.348477D+03  0.548508D+01  0.150794D+03  0.200828D+03  0.573930D+02
      2   0.924005D+03  0.150794D+03  0.109493D+03  0.640761D+03  0.350616D+02
      3   0.172198D+04  0.200828D+03  0.640761D+03  0.123392D+04  0.283064D+03
                71            72            73            74            75 
      1   0.350616D+02  0.283064D+03  0.177674D+01  0.539015D+01  0.229603D+02
      2   0.104954D+01  0.176508D+03  0.539015D+01  0.175770D+03  0.223032D+03
      3   0.176508D+03  0.139115D+04  0.229603D+02  0.223032D+03  0.293714D+03
                76            77            78            79            80 
      1  -0.268873D+02  0.380018D+01 -0.318984D+02 -0.387729D+01 -0.347023D+02
      2   0.380018D+01 -0.297312D+01  0.499643D+02 -0.347023D+02  0.411818D+02
      3  -0.318984D+02  0.499643D+02  0.503670D+02 -0.999866D+02  0.169350D+02
                81            82            83            84            85 
      1  -0.999866D+02  0.457534D+02  0.392747D+02  0.111096D+03  0.204626D+02
      2   0.169350D+02  0.392747D+02  0.165112D+03  0.167154D+03 -0.956332D+01
      3  -0.142658D+03  0.111096D+03  0.167154D+03  0.449362D+03  0.382503D+02
                86            87            88            89            90 
      1  -0.956332D+01  0.382503D+02  0.318353D+01  0.363736D+01 -0.775039D+02
      2  -0.280986D+02  0.690636D+01  0.363736D+01 -0.530319D+02 -0.400957D+02
      3   0.690636D+01  0.312622D+02 -0.775039D+02 -0.400957D+02 -0.136453D+03
                91            92            93            94            95 
      1   0.172808D+02 -0.366745D+01  0.110895D+03  0.883890D+01 -0.161402D+02
      2  -0.366745D+01 -0.227325D+02 -0.307835D+02 -0.161402D+02  0.400248D+02
      3   0.110895D+03 -0.307835D+02  0.465083D+03 -0.889769D+01 -0.454436D+02
                96            97            98            99           100 
      1  -0.889769D+01  0.202118D+02 -0.948528D+01  0.532685D+02 -0.231290D+02
      2  -0.454436D+02 -0.948528D+01  0.318910D+02 -0.564944D+02 -0.161333D+02
      3  -0.157223D+03  0.532685D+02 -0.564944D+02  0.284998D+03 -0.448138D+02
               101           102           103           104           105 
      1  -0.161333D+02 -0.448138D+02  0.326043D+02  0.438991D+02  0.103707D+03
      2   0.140435D+02  0.116321D+02  0.438991D+02  0.708058D+02  0.155536D+03
      3   0.116321D+02 -0.472076D+02  0.103707D+03  0.155536D+03  0.308284D+03
               106           107           108           109           110 
      1   0.235289D+02  0.362916D+02  0.826721D+02 -0.307801D+02 -0.236913D+02
      2   0.362916D+02  0.595089D+02  0.897813D+02 -0.236913D+02 -0.121682D+03
      3   0.826721D+02  0.897813D+02  0.256226D+03 -0.171566D+03 -0.823379D+02
               111           112           113           114           115 
      1  -0.171566D+03  0.407557D+02  0.252117D+02  0.159116D+03 -0.227405D+02
      2  -0.823379D+02  0.252117D+02  0.160582D+02  0.742228D+02 -0.311220D+02
      3  -0.901162D+03  0.159116D+03  0.742228D+02  0.588619D+03 -0.142830D+02
               116           117           118           119           120 
      1  -0.311220D+02 -0.142830D+02 -0.426351D+02 -0.875224D+02 -0.285161D+03
      2  -0.121740D+03 -0.193608D+03 -0.875224D+02 -0.277785D+03 -0.702698D+03
      3  -0.193608D+03  0.326247D+03 -0.285161D+03 -0.702698D+03 -0.207479D+04
               121           122           123           124           125 
      1  -0.344968D+02 -0.846914D+01 -0.145351D+03 -0.146394D+02  0.255834D+02
      2  -0.846914D+01  0.293496D+02  0.107948D+02  0.255834D+02  0.302566D+02
      3  -0.145351D+03  0.107948D+02 -0.490713D+03  0.572962D+02  0.361473D+03
               126           127           128           129           130 
      1   0.572962D+02 -0.251992D+02  0.150311D+02 -0.748171D+02 -0.246733D+02
      2   0.361473D+03  0.150311D+02 -0.194785D+02  0.920340D+01  0.826435D+01
      3   0.123000D+04 -0.748171D+02  0.920340D+01 -0.179552D+03 -0.568080D+02
               131           132           133           134           135 
      1   0.826435D+01 -0.568080D+02  0.113369D+02 -0.192376D+02  0.230048D+02
      2  -0.784975D+02 -0.523128D+02 -0.192376D+02  0.519056D+02  0.316748D+02
      3  -0.523128D+02 -0.173634D+03  0.230048D+02  0.316748D+02  0.315433D+02
               136           137           138           139           140 
      1   0.119700D+02  0.173276D+02  0.974628D+02 -0.507314D+02 -0.709941D+02
      2   0.173276D+02 -0.726912D+01  0.885977D+02 -0.709941D+02 -0.148354D+03
      3   0.974628D+02  0.885977D+02  0.576727D+03 -0.190667D+03 -0.350903D+03
               141           142           143           144           145 
      1  -0.190667D+03  0.513760D+02  0.653629D+02  0.199613D+03  0.322436D+03
      2  -0.350903D+03  0.653629D+02  0.121806D+03  0.343304D+03  0.297257D+03
      3  -0.850383D+03  0.199613D+03  0.343304D+03  0.929705D+03  0.136171D+04
               146           147           148           149           150 
      1   0.297257D+03  0.136171D+04 -0.441345D+01 -0.370752D+00  0.297456D+01
      2   0.112970D+04  0.213544D+04 -0.370752D+00  0.275701D+02  0.921298D+02
      3   0.213544D+04  0.817614D+04  0.297456D+01  0.921298D+02  0.679094D+02
               151           152           153           154           155 
      1  -0.274188D+02 -0.651385D+02 -0.150764D+03 -0.551599D+02 -0.670186D+02
      2  -0.651385D+02 -0.103391D+03 -0.262853D+03 -0.670186D+02 -0.182759D+03
      3  -0.150764D+03 -0.262853D+03 -0.746731D+03 -0.264902D+03 -0.417063D+03
               156           157           158           159           160 
      1  -0.264902D+03 -0.159644D+03 -0.148615D+03 -0.696660D+03  0.230388D+02
      2  -0.417063D+03 -0.148615D+03 -0.568938D+03 -0.115944D+04  0.212172D+02
      3  -0.183089D+04 -0.696660D+03 -0.115944D+04 -0.440354D+04  0.204900D+02
               161           162           163           164           165 
      1   0.212172D+02  0.204900D+02 -0.101729D+03 -0.923833D+02 -0.434497D+03
      2   0.124468D+02  0.194185D+02 -0.923833D+02 -0.380419D+03 -0.786582D+03
      3   0.194185D+02 -0.122387D+03 -0.434497D+03 -0.786582D+03 -0.262716D+04
               166           167           168           169           170 
      1   0.393124D+02  0.436856D+02  0.183456D+03 -0.869577D+01 -0.854289D+01
      2   0.436856D+02  0.186088D+03  0.357229D+03 -0.854289D+01 -0.383705D+02
      3   0.183456D+03  0.357229D+03  0.116848D+04 -0.185188D+02 -0.966163D+02
               171           172           173           174           175 
      1  -0.185188D+02 -0.604753D+02 -0.499342D+02 -0.243151D+03 -0.105729D+03
      2  -0.966163D+02 -0.499342D+02 -0.177046D+03 -0.411096D+03 -0.131547D+03
      3  -0.220635D+03 -0.243151D+03 -0.411096D+03 -0.206758D+04 -0.513485D+03
               176           177           178           179           180 
      1  -0.131547D+03 -0.513485D+03 -0.138247D+02 -0.430570D+01 -0.501434D+02
      2  -0.506145D+03 -0.107640D+04 -0.430570D+01 -0.381624D+02 -0.130201D+03
      3  -0.107640D+04 -0.404013D+04 -0.501434D+02 -0.130201D+03 -0.747504D+03
               181           182           183           184           185 
      1   0.117098D+03  0.137123D+03  0.580293D+03  0.999356D+02  0.102562D+03
      2   0.137123D+03  0.510437D+03  0.977041D+03  0.102562D+03  0.397779D+03
      3   0.580293D+03  0.977041D+03  0.372610D+04  0.498453D+03  0.835225D+03
               186           187           188           189           190 
      1   0.498453D+03  0.678843D+01  0.867230D+01  0.587146D+02 -0.121198D+03
      2   0.835225D+03  0.867230D+01  0.500921D+02  0.391638D+02 -0.132056D+03
      3   0.370886D+04  0.587146D+02  0.391638D+02 -0.656593D+02 -0.568820D+03
               191           192           193           194           195 
      1  -0.132056D+03 -0.568820D+03  0.116054D+03  0.120005D+03  0.523633D+03
      2  -0.482676D+03 -0.894852D+03  0.120005D+03  0.403121D+03  0.772746D+03
      3  -0.894852D+03 -0.355149D+04  0.523633D+03  0.772746D+03  0.334904D+04
               196           197           198           199           200 
      1  -0.143167D+02 -0.211209D+01 -0.866485D+02 -0.291317D+03 -0.261941D+03
      2  -0.211209D+01 -0.387713D+02 -0.412664D+02 -0.261941D+03 -0.989977D+03
      3  -0.866485D+02 -0.412664D+02 -0.439055D+03 -0.114150D+04 -0.175188D+04
               201           202           203           204           205 
      1  -0.114150D+04  0.427020D+02  0.543733D+02  0.208570D+03 -0.823914D+02
      2  -0.175188D+04  0.543733D+02  0.178420D+03  0.341572D+03 -0.438875D+02
      3  -0.650222D+04  0.208570D+03  0.341572D+03  0.995826D+03 -0.324867D+03
               206           207           208           209           210 
      1  -0.438875D+02 -0.324867D+03  0.134541D+02  0.838865D+01  0.528592D+02
      2  -0.322376D+03 -0.506272D+03  0.838865D+01  0.581616D+02  0.592236D+02
      3  -0.506272D+03 -0.184517D+04  0.528592D+02  0.592236D+02  0.271180D+03
               211           212           213           214           215 
      1  -0.140101D+03 -0.128371D+03 -0.553695D+03  0.200025D+02  0.319995D+01
      2  -0.128371D+03 -0.512100D+03 -0.918828D+03  0.319995D+01  0.527586D+02
      3  -0.553695D+03 -0.918828D+03 -0.306356D+04  0.788902D+02  0.691514D+02
               216           217           218           219           220 
      1   0.788902D+02  0.908791D+01  0.310307D+01  0.416167D+02  0.112955D+02
      2   0.691514D+02  0.310307D+01  0.265244D+02  0.652636D+02  0.911133D+01
      3   0.403062D+03  0.416167D+02  0.652636D+02  0.273565D+03  0.430705D+02
               221           222           223           224           225 
      1   0.911133D+01  0.430705D+02  0.282923D+02  0.292766D+02  0.115146D+03
      2   0.235552D+02  0.816059D+02  0.292766D+02  0.118406D+03  0.211608D+03
      3   0.816059D+02  0.281010D+03  0.115146D+03  0.211608D+03  0.708482D+03
               226           227           228           229           230 
      1  -0.126160D+02 -0.711540D+01 -0.483390D+02  0.392494D+01  0.560329D+00
      2  -0.711540D+01 -0.255640D+02 -0.532511D+02  0.560329D+00  0.421461D+01
      3  -0.483390D+02 -0.532511D+02 -0.260950D+03  0.743347D+01  0.119539D+02
               231           232           233           234           235 
      1   0.743347D+01 -0.268704D+02 -0.264803D+02 -0.110760D+03  0.143384D+03
      2   0.119539D+02 -0.264803D+02 -0.107777D+03 -0.208362D+03  0.140249D+03
      3   0.964884D+02 -0.110760D+03 -0.208362D+03 -0.702484D+03  0.613873D+03
               236           237           238           239           240 
      1   0.140249D+03  0.613873D+03  0.870830D+02  0.619951D+02  0.318114D+03
      2   0.562313D+03  0.881676D+03  0.619951D+02  0.309239D+03  0.486434D+03
      3   0.881676D+03  0.315634D+04  0.318114D+03  0.486434D+03  0.200959D+04
               241           242           243           244           245 
      1  -0.105252D+02 -0.216101D+02 -0.339305D+02 -0.976541D+02 -0.103007D+03
      2  -0.216101D+02  0.251266D+02  0.148068D+02 -0.103007D+03 -0.412166D+03
      3  -0.339305D+02  0.148068D+02 -0.367298D+02 -0.464089D+03 -0.599269D+03
               246           247           248           249           250 
      1  -0.464089D+03  0.115183D+03  0.113027D+03  0.469858D+03 -0.137636D+02
      2  -0.599269D+03  0.113027D+03  0.454891D+03  0.739508D+03 -0.267265D+01
      3  -0.193381D+04  0.469858D+03  0.739508D+03  0.240511D+04 -0.404451D+02
               251           252           253           254           255 
      1  -0.267265D+01 -0.404451D+02  0.454366D+02  0.194785D+02  0.885355D+02
      2  -0.102175D+03 -0.179189D+03  0.194785D+02  0.818210D+02  0.110259D+03
      3  -0.179189D+03 -0.542953D+03  0.885355D+02  0.110259D+03  0.449235D+03
               256           257           258           259           260 
      1  -0.103418D+03 -0.107348D+03 -0.485501D+03  0.239196D+02  0.186314D+02
      2  -0.107348D+03 -0.467802D+03 -0.799629D+03  0.186314D+02  0.134809D+03
      3  -0.485501D+03 -0.799629D+03 -0.247357D+04  0.108117D+03  0.223704D+03
               261           262           263           264           265 
      1   0.108117D+03  0.858409D+02  0.762814D+02  0.343074D+03  0.164743D+02
      2   0.223704D+03  0.762814D+02  0.322478D+03  0.595898D+03  0.305686D+02
      3   0.701380D+03  0.343074D+03  0.595898D+03  0.190895D+04  0.116906D+03
               266           267           268           269           270 
      1   0.305686D+02  0.116906D+03  0.216804D+01  0.121102D+02  0.342886D+02
      2   0.102626D+03  0.180866D+03  0.121102D+02  0.282056D+02  0.629310D+02
      3   0.180866D+03  0.489890D+03  0.342886D+02  0.629310D+02  0.132045D+03
               271           272           273           274           275 
      1   0.629375D+01  0.327514D+01  0.738086D+01  0.604431D+01  0.102351D+02
      2   0.327514D+01  0.272618D+01  0.488391D+01  0.102351D+02  0.125628D+02
      3   0.738086D+01  0.488391D+01  0.268399D+01  0.205114D+02  0.265525D+02
               276           277           278           279           280 
      1   0.205114D+02  0.760431D+00 -0.852605D+00 -0.144950D+02  0.158536D+02
      2   0.265525D+02 -0.852605D+00  0.274648D+01 -0.656900D+00  0.788950D+01
      3   0.717028D+02 -0.144950D+02 -0.656900D+00 -0.211174D+02  0.345464D+02
               281           282           283           284           285 
      1   0.788950D+01  0.345464D+02  0.136240D+01  0.349051D+01 -0.256180D+00
      2   0.125409D+02  0.322453D+02  0.349051D+01 -0.184741D+01 -0.414841D+01
      3   0.322453D+02  0.132826D+03 -0.256180D+00 -0.414841D+01 -0.187517D+02
               286           287           288           289           290 
      1   0.377164D+01 -0.684294D+01 -0.172184D+02  0.858812D+01  0.723127D+00
      2  -0.684294D+01 -0.108579D+02 -0.262392D+02  0.723127D+00  0.198088D+01
      3  -0.172184D+02 -0.262392D+02 -0.661210D+02  0.161163D+02  0.368309D+01
               291           292           293           294           295 
      1   0.161163D+02 -0.705450D+01  0.848553D+00 -0.252329D+02  0.293183D+01
      2   0.368309D+01  0.848553D+00 -0.657885D+01 -0.857379D+01 -0.171663D+01
      3   0.353468D+02 -0.252329D+02 -0.857379D+01 -0.106556D+03 -0.554626D+01
               296           297           298           299           300 
      1  -0.171663D+01 -0.554626D+01 -0.230818D+01 -0.348210D+01 -0.118463D+02
      2   0.773223D+01  0.747428D+01 -0.348210D+01 -0.644680D+01 -0.144560D+02
      3   0.747428D+01  0.441839D+02 -0.118463D+02 -0.144560D+02 -0.688513D+02
               301           302           303           304           305 
      1   0.263512D+01  0.486169D+01  0.534182D+01  0.261782D+01  0.479318D+01
      2   0.486169D+01  0.100934D+01  0.103091D+02  0.479318D+01  0.132270D+02
      3   0.534182D+01  0.103091D+02 -0.482693D+01  0.219184D+02  0.350276D+02
               306           307           308           309           310 
      1   0.219184D+02  0.338491D+01  0.577921D+01  0.165131D+02 -0.475795D+01
      2   0.350276D+02  0.577921D+01  0.567701D+01  0.182830D+02 -0.530529D+01
      3   0.156742D+03  0.165131D+02  0.182830D+02  0.751485D+02 -0.181743D+02
               311           312           313           314           315 
      1  -0.530529D+01 -0.181743D+02 -0.412526D+01 -0.576719D+01 -0.161612D+02
      2  -0.108945D+01 -0.225333D+02 -0.576719D+01 -0.102356D+02 -0.291252D+02
      3  -0.225333D+02 -0.876996D+02 -0.161612D+02 -0.291252D+02 -0.777988D+02
               316           317           318           319           320 
      1  -0.704756D+01 -0.584676D+01 -0.312383D+02 -0.226930D+01 -0.172159D+01
      2  -0.584676D+01 -0.252513D+02 -0.517409D+02 -0.172159D+01 -0.576678D+01
      3  -0.312383D+02 -0.517409D+02 -0.179169D+03 -0.820525D+01 -0.126163D+02
               321           322           323           324           325 
      1  -0.820525D+01  0.279892D+01  0.220157D+01  0.897647D+01  0.284158D+00
      2  -0.126163D+02  0.220157D+01  0.672135D+01  0.204948D+02  0.188669D+01
      3  -0.409509D+02  0.897647D+01  0.204948D+02  0.596199D+02 -0.876395D+01
               326           327           328           329           330 
      1   0.188669D+01 -0.876395D+01  0.462719D+00  0.311129D+01  0.131475D+01
      2  -0.747595D+01 -0.194581D+02  0.311129D+01  0.577351D+01  0.171317D+01
      3  -0.194581D+02 -0.723109D+02  0.131475D+01  0.171317D+01 -0.108104D+02
               331           332           333           334           335 
      1   0.162352D+01  0.238717D+01  0.808789D+01  0.104279D+02  0.678685D+01
      2   0.238717D+01  0.409982D+01  0.509585D+01  0.678685D+01  0.285182D+02
      3   0.808789D+01  0.509585D+01  0.287702D+02  0.375353D+02  0.656923D+02
               336           337           338           339           340 
      1   0.375353D+02 -0.998610D+01 -0.174159D+02 -0.413090D+02 -0.301211D+01
      2   0.656923D+02 -0.174159D+02 -0.680461D+02 -0.996376D+02 -0.753378D+00
      3   0.245279D+03 -0.413090D+02 -0.996376D+02 -0.248299D+03 -0.906503D+01
               341           342           343           344           345 
      1  -0.753378D+00 -0.906503D+01  0.283948D+00 -0.183493D+01  0.108437D+01
      2  -0.602647D+01 -0.187450D+02 -0.183493D+01  0.221699D+01 -0.802042D+01
      3  -0.187450D+02 -0.870883D+02  0.108437D+01 -0.802042D+01  0.165308D+02
               346           347           348           349           350 
      1   0.362393D+01 -0.529798D+01  0.526924D+01  0.726527D+01  0.219050D+01
      2  -0.529798D+01  0.269449D+01 -0.145919D+02  0.219050D+01  0.228260D+02
      3   0.526924D+01 -0.145919D+02 -0.339013D+01  0.222826D+02  0.294819D+02
               351           352           353           354           355 
      1   0.222826D+02 -0.742868D+01 -0.202341D+01 -0.179411D+01 -0.595987D+01
      2   0.294819D+02 -0.202341D+01 -0.587330D+01 -0.916859D+01 -0.641919D+01
      3   0.837236D+02 -0.179411D+01 -0.916859D+01 -0.384303D+02 -0.101192D+02
               356           357           358           359           360 
      1  -0.641919D+01 -0.101192D+02 -0.180811D+01  0.402106D+00 -0.172259D+02
      2  -0.753528D+01 -0.163351D+02  0.402106D+00 -0.438555D+00 -0.343204D+01
      3  -0.163351D+02 -0.422117D+02 -0.172259D+02 -0.343204D+01 -0.239670D+02
               361           362           363           364           365 
      1  -0.107193D+02  0.813482D+00 -0.149707D+01  0.113152D+01 -0.341398D+01
      2   0.813482D+00 -0.645469D+01 -0.109792D+02 -0.341398D+01 -0.797923D+00
      3  -0.149707D+01 -0.109792D+02 -0.347095D+02 -0.166955D+01 -0.314632D+01
               366           367           368           369           370 
      1  -0.166955D+01 -0.201149D+00 -0.636288D+00 -0.944036D+01 -0.317759D+01
      2  -0.314632D+01 -0.636288D+00 -0.158351D+02 -0.228155D+02  0.257961D+01
      3  -0.962477D+01 -0.944036D+01 -0.228155D+02 -0.651308D+02  0.162911D+01
               371           372           373           374           375 
      1   0.257961D+01  0.162911D+01  0.222379D+01 -0.318845D+01  0.102435D+01
      2   0.123033D+01  0.157313D+01 -0.318845D+01  0.844018D+01  0.567669D+01
      3   0.157313D+01  0.472060D+01  0.102435D+01  0.567669D+01  0.152044D+02
               376           377           378           379           380 
      1  -0.764308D+00 -0.195179D+01 -0.716953D+01 -0.164457D+02 -0.909944D+01
      2  -0.195179D+01 -0.104584D+02 -0.158908D+02 -0.909944D+01 -0.307417D+02
      3  -0.716953D+01 -0.158908D+02 -0.445199D+02 -0.120602D+02 -0.330612D+02
               381           382           383           384           385 
      1  -0.120602D+02 -0.172521D+02 -0.616296D+02 -0.103817D+03 -0.977044D+01
      2  -0.330612D+02 -0.616296D+02 -0.526994D+02 -0.201705D+03 -0.222204D+02
      3  -0.875712D+01 -0.103817D+03 -0.201705D+03 -0.347681D+03 -0.847028D+02
               386           387           388           389           390 
      1  -0.222204D+02 -0.847028D+02 -0.618020D+01 -0.325062D+01  0.650789D+02
      2  -0.587081D+02 -0.155873D+03 -0.325062D+01  0.471004D+02  0.156360D+03
      3  -0.155873D+03 -0.528757D+03  0.650789D+02  0.156360D+03  0.856280D+03
               391           392           393           394           395 
      1   0.228835D+02  0.302953D+02  0.129615D+03 -0.148830D+02 -0.124819D+02
      2   0.302953D+02 -0.299445D+02  0.319496D+02 -0.124819D+02 -0.153878D+02
      3   0.129615D+03  0.319496D+02  0.295989D+03 -0.758865D+02 -0.762756D+02
               396           397           398           399           400 
      1  -0.758865D+02  0.534524D+01  0.142990D+02  0.414517D+02 -0.723684D+01
      2  -0.762756D+02  0.142990D+02  0.326510D+02  0.792864D+02  0.229029D+02
      3  -0.268725D+03  0.414517D+02  0.792864D+02  0.165905D+03  0.557046D+02
               401           402           403           404           405 
      1   0.229029D+02  0.557046D+02 -0.180423D+02 -0.135728D+02 -0.743979D+02
      2   0.131895D+03  0.351378D+03 -0.135728D+02 -0.845343D+02 -0.162461D+03
      3   0.351378D+03  0.801144D+03 -0.743979D+02 -0.162461D+03 -0.375459D+03
               406           407           408           409           410 
      1   0.111215D+02 -0.265781D+02  0.286039D+01 -0.317478D+01 -0.307965D+02
      2  -0.265781D+02 -0.400362D+02 -0.125115D+03 -0.307965D+02 -0.594319D+02
      3   0.286039D+01 -0.125115D+03 -0.121055D+03 -0.116510D+03 -0.199253D+03
               411           412           413           414           415 
      1  -0.116510D+03 -0.194916D+02 -0.429084D+01 -0.187322D+02  0.172661D+02
      2  -0.199253D+03 -0.429084D+01 -0.353080D+02 -0.857236D+02  0.973092D+01
      3  -0.859730D+03 -0.187322D+02 -0.857236D+02 -0.158454D+03  0.917405D+01
               416           417           418           419           420 
      1   0.973092D+01  0.917405D+01  0.655660D+01  0.383637D+02  0.405826D+02
      2   0.172538D+02  0.308926D+02  0.383637D+02 -0.292699D+02  0.130137D+02
      3   0.308926D+02  0.135851D+02  0.405826D+02  0.130137D+02  0.124403D+02
               421           422           423           424           425 
      1  -0.115898D+02 -0.451099D+01  0.234498D+02  0.402632D+02  0.505686D+02
      2  -0.451099D+01 -0.294798D+02 -0.499178D+02  0.505686D+02  0.268221D+02
      3   0.234498D+02 -0.499178D+02 -0.828409D+02  0.172348D+03  0.165676D+03
               426           427           428           429           430 
      1   0.172348D+03  0.339399D+01  0.143374D+02  0.825974D+02 -0.219494D+02
      2   0.165676D+03  0.143374D+02  0.663146D+01  0.403917D+02 -0.654651D+01
      3   0.688181D+03  0.825974D+02  0.403917D+02  0.706176D+03  0.356140D+00
               431           432           433           434           435 
      1  -0.654651D+01  0.356140D+00 -0.616630D+01 -0.149986D+02 -0.853167D+02
      2   0.755340D+00 -0.576190D+01 -0.149986D+02  0.672666D+01 -0.439622D+02
      3  -0.576190D+01 -0.834843D+02 -0.853167D+02 -0.439622D+02 -0.379059D+03
               436           437           438           439           440 
      1   0.170299D+02  0.212790D+02  0.722752D+02 -0.719584D+01 -0.505565D+01
      2   0.212790D+02  0.118124D+03  0.266913D+03 -0.505565D+01 -0.363898D+01
      3   0.722752D+02  0.266913D+03  0.379724D+03 -0.261564D+02  0.344168D+02
               441           442           443           444           445 
      1  -0.261564D+02 -0.470266D+01  0.346793D+02  0.584276D+02  0.402454D+01
      2   0.344168D+02  0.346793D+02  0.319427D+02  0.140779D+03 -0.160926D+02
      3  -0.111785D+03  0.584276D+02  0.140779D+03  0.747004D+03 -0.780319D+02
               446           447           448           449           450 
      1  -0.160926D+02 -0.780319D+02 -0.149305D+02  0.444743D+01 -0.780390D+02
      2  -0.621708D+01 -0.112589D+03  0.444743D+01  0.163252D+02  0.422567D+02
      3  -0.112589D+03 -0.526627D+03 -0.780390D+02  0.422567D+02 -0.226436D+03
 Property number 2 -- FD Optical Rotation Tensor derivatives, frequency  1    0.065184:
                 1             2             3             4             5 
      1  -0.236098D+00 -0.172293D+03 -0.151276D+02  0.713271D+00  0.372966D+02
      2  -0.312142D+03 -0.134363D+04 -0.134139D+04  0.228355D+02  0.124708D+03
      3   0.106036D+03  0.477524D+03  0.464063D+03 -0.773492D+01 -0.491586D+02
                 6             7             8             9            10 
      1   0.311466D+02 -0.118127D+02 -0.531547D+02 -0.108112D+03 -0.260472D+02
      2   0.135727D+03 -0.706237D+02 -0.158666D+03 -0.583235D+03  0.573598D+01
      3  -0.538742D+02  0.296481D+02  0.609954D+02  0.221166D+03  0.294270D+01
                11            12            13            14            15 
      1   0.966735D+02 -0.724817D+02 -0.250931D+02 -0.168712D+03 -0.207739D+03
      2   0.649909D+03  0.930829D+02 -0.457165D+03 -0.123284D+04 -0.233211D+04
      3  -0.235478D+03 -0.170902D+02  0.157679D+03  0.430280D+03  0.806304D+03
                16            17            18            19            20 
      1   0.583326D+02  0.597198D+02  0.232015D+03  0.201656D+02  0.445799D+02
      2   0.437045D+03  0.323335D+03  0.158027D+04  0.177673D+03  0.258676D+03
      3  -0.157048D+03 -0.113064D+03 -0.553497D+03 -0.617497D+02 -0.953493D+02
                21            22            23            24            25 
      1   0.848879D+02  0.935918D+01  0.207185D+03  0.164507D+03 -0.430213D+02
      2   0.739788D+03  0.437085D+03  0.155583D+04  0.239550D+04 -0.258594D+03
      3  -0.260921D+03 -0.148414D+03 -0.544486D+03 -0.827034D+03  0.899270D+02
                26            27            28            29            30 
      1  -0.133306D+02 -0.119226D+03 -0.342193D+02 -0.175172D+03 -0.254226D+03
      2   0.768709D+02 -0.647880D+03 -0.481189D+03 -0.121490D+04 -0.261040D+04
      3  -0.323379D+02  0.214850D+03  0.167109D+03  0.437430D+03  0.917851D+03
                31            32            33            34            35 
      1   0.137762D+02 -0.122790D+03 -0.262530D+02  0.504104D+02 -0.223665D+02
      2  -0.949987D+02 -0.788243D+03 -0.680729D+03  0.182303D+03 -0.253763D+03
      3   0.338878D+02  0.280169D+03  0.238357D+03 -0.709703D+02  0.822135D+02
                36            37            38            39            40 
      1   0.119581D+03  0.151503D+02  0.225258D+03  0.265762D+03  0.439299D+00
      2   0.459794D+03  0.467545D+03  0.162151D+04  0.315160D+04 -0.544942D+02
      3  -0.185858D+03 -0.154712D+03 -0.573971D+03 -0.107655D+04  0.204851D+02
                41            42            43            44            45 
      1  -0.379301D+02 -0.441649D+02 -0.119614D+02  0.850752D+01 -0.735573D+02
      2  -0.323869D+03 -0.659792D+03  0.500346D+02  0.376608D+03  0.191165D+03
      3   0.111387D+03  0.227003D+03 -0.826393D+01 -0.122651D+03 -0.293065D+02
                46            47            48            49            50 
      1   0.375720D+01 -0.131735D+03 -0.971520D+02  0.372930D+01  0.161210D+03
      2  -0.207713D+03 -0.981533D+03 -0.151970D+04  0.357875D+03  0.135865D+04
      3   0.676814D+02  0.349375D+03  0.529495D+03 -0.113327D+03 -0.470530D+03
                51            52            53            54            55 
      1   0.989193D+02  0.510095D+02  0.401418D+02  0.223953D+03  0.152331D+01
      2   0.206781D+04  0.389466D+03  0.152806D+03  0.145151D+04 -0.503251D+02
      3  -0.685761D+03 -0.138155D+03 -0.518406D+02 -0.511142D+03  0.138330D+02
                56            57            58            59            60 
      1  -0.197862D+02 -0.426156D+01  0.149112D+02 -0.192205D+03 -0.954213D+02
      2  -0.177808D+03 -0.314707D+03 -0.294269D+03 -0.149454D+04 -0.203325D+04
      3   0.552254D+02  0.851043D+02  0.893681D+02  0.521250D+03  0.677725D+03
                61            62            63            64            65 
      1  -0.436620D+02 -0.572799D+02 -0.167200D+03  0.667615D+01  0.148314D+03
      2  -0.303299D+03 -0.170434D+03 -0.102130D+04  0.338559D+03  0.122986D+04
      3   0.105074D+03  0.677870D+02  0.360243D+03 -0.114960D+03 -0.430426D+03
                66            67            68            69            70 
      1   0.871548D+02 -0.259830D+02  0.108132D+03  0.865533D+01  0.556306D+02
      2   0.180490D+04  0.604774D+02  0.853374D+03  0.965015D+03  0.378098D+03
      3  -0.615800D+03 -0.745482D+01 -0.292328D+03 -0.309493D+03 -0.134716D+03
                71            72            73            74            75 
      1   0.521416D+02  0.269702D+03  0.335984D+01 -0.356299D+02 -0.437249D+02
      2   0.292285D+03  0.188339D+04  0.221256D+02 -0.587046D+01  0.399109D+01
      3  -0.111649D+03 -0.686394D+03 -0.848565D+01  0.162886D+02  0.153487D+02
                76            77            78            79            80 
      1  -0.236789D+02  0.531319D+01 -0.509798D+02 -0.471301D+01 -0.563405D+02
      2  -0.114396D+03  0.523547D+02 -0.170822D+03 -0.725908D+02 -0.247834D+03
      3   0.429367D+02 -0.187679D+02  0.644111D+02  0.253747D+02  0.952592D+02
                81            82            83            84            85 
      1  -0.950606D+02  0.308891D+02  0.372291D+01  0.667456D+02  0.185315D+02
      2  -0.527863D+03  0.225388D+03  0.178000D+03  0.612249D+03  0.101127D+03
      3   0.188226D+03 -0.882214D+02 -0.583131D+02 -0.225175D+03 -0.387960D+02
                86            87            88            89            90 
      1   0.144440D+02  0.414271D+02 -0.510046D+01  0.231649D+02 -0.965738D+01
      2   0.450009D+02  0.229321D+03 -0.904248D+01  0.928336D+02 -0.119151D+03
      3  -0.175243D+02 -0.966367D+02  0.429932D+01 -0.408401D+02  0.285971D+02
                91            92            93            94            95 
      1   0.205334D+02  0.406611D+01  0.984067D+02  0.473058D+01 -0.219951D+02
      2   0.138729D+03 -0.198722D+02  0.627307D+03  0.870570D+01 -0.102661D+03
      3  -0.485104D+02  0.795208D+01 -0.208782D+03 -0.764264D+01  0.314158D+02
                96            97            98            99           100 
      1  -0.770245D+01  0.145129D+02 -0.213220D+02  0.675197D+02 -0.196869D+02
      2  -0.105570D+03  0.101516D+03 -0.740158D+02  0.387255D+03 -0.123676D+03
      3   0.235910D+02 -0.351998D+02  0.205864D+02 -0.133004D+03  0.442222D+02
               101           102           103           104           105 
      1  -0.146117D+02 -0.427687D+02  0.108481D+02  0.156502D+02  0.292753D+02
      2  -0.566578D+02 -0.220530D+03  0.120754D+03  0.190522D+03  0.407226D+03
      3   0.223854D+02  0.846481D+02 -0.429874D+02 -0.614951D+02 -0.133371D+03
               106           107           108           109           110 
      1   0.851798D+01  0.121595D+01  0.220450D+02 -0.295589D+02  0.118628D+02
      2   0.994692D+02  0.138155D+03  0.308458D+03 -0.194245D+03 -0.335330D+02
      3  -0.319228D+02 -0.423694D+02 -0.100604D+03  0.718992D+02  0.144970D+02
               111           112           113           114           115 
      1  -0.161070D+03  0.286248D+02  0.897991D+01  0.117704D+03 -0.145827D+00
      2  -0.978716D+03  0.197846D+03  0.669609D+02  0.820019D+03 -0.509533D+02
      3   0.357358D+03 -0.734093D+02 -0.259433D+02 -0.302670D+03  0.245938D+02
               116           117           118           119           120 
      1  -0.406190D+01  0.106199D+03 -0.212194D+02 -0.349196D+02 -0.134972D+03
      2  -0.151270D+03  0.389304D+03 -0.261776D+03 -0.570204D+03 -0.183574D+04
      3   0.520391D+02 -0.119508D+03  0.887942D+02  0.190547D+03  0.612236D+03
               121           122           123           124           125 
      1  -0.249838D+02 -0.174324D+02 -0.122470D+03 -0.100764D+02  0.520222D+02
      2  -0.189873D+03 -0.663714D+02 -0.782999D+03 -0.233084D+02  0.394795D+03
      3   0.654142D+02  0.236305D+02  0.270203D+03  0.122997D+02 -0.135974D+03
               126           127           128           129           130 
      1   0.776987D+02 -0.270662D+02  0.193610D+02 -0.485327D+02 -0.143644D+02
      2   0.950160D+03 -0.173944D+03  0.954219D+02 -0.322937D+03 -0.917504D+02
      3  -0.308732D+03  0.612168D+02 -0.377938D+02  0.110436D+03  0.317725D+02
               131           132           133           134           135 
      1   0.314015D+02 -0.142254D+02  0.129321D+02 -0.321910D+02  0.423750D+01
      2   0.791605D+02 -0.174667D+03  0.679968D+02 -0.882119D+02  0.353480D+02
      3  -0.339043D+02  0.541590D+02 -0.268704D+02  0.354340D+02 -0.160924D+02
               136           137           138           139           140 
      1   0.214290D+02  0.271051D+02  0.104661D+03 -0.255806D+02 -0.340981D+02
      2   0.129071D+03  0.128107D+03  0.721854D+03 -0.235492D+03 -0.390564D+03
      3  -0.440769D+02 -0.450747D+02 -0.247601D+03  0.812370D+02  0.135544D+03
               141           142           143           144           145 
      1  -0.965207D+02  0.272105D+02  0.246073D+02  0.999066D+02  0.243424D+03
      2  -0.996466D+03  0.253281D+03  0.360641D+03  0.108313D+04  0.191688D+04
      3   0.345724D+03 -0.873911D+02 -0.126608D+03 -0.374653D+03 -0.662385D+03
               146           147           148           149           150 
      1   0.142350D+02  0.972591D+03 -0.209928D+01  0.328525D-01 -0.142127D+02
      2   0.167294D+04  0.898003D+04 -0.801311D+01  0.587298D+02  0.140232D+03
      3  -0.534979D+03 -0.303058D+04 -0.406563D+01 -0.202884D+02 -0.120940D+03
               151           152           153           154           155 
      1  -0.165071D+02 -0.243962D+02 -0.101036D+03 -0.425622D+02 -0.237888D+02
      2  -0.153854D+03 -0.268432D+03 -0.833787D+03 -0.347396D+03 -0.382384D+03
      3   0.513542D+02  0.904905D+02  0.296331D+03  0.115060D+03  0.122890D+03
               156           157           158           159           160 
      1  -0.234869D+03 -0.119064D+03 -0.722370D+01 -0.491222D+03  0.250635D+01
      2  -0.194031D+04 -0.951886D+03 -0.879552D+03 -0.472704D+04  0.319890D+02
      3   0.630445D+03  0.332622D+03  0.275309D+03  0.163719D+04 -0.126142D+02
               161           162           163           164           165 
      1  -0.337750D+01 -0.285230D+02 -0.738124D+02 -0.232259D+01 -0.259308D+03
      2   0.225495D+02 -0.157491D+03 -0.593639D+03 -0.588640D+03 -0.284260D+04
      3  -0.669821D+01  0.489755D+02  0.211327D+03  0.191602D+03  0.103632D+04
               166           167           168           169           170 
      1   0.310962D+02 -0.486651D+00  0.121223D+03 -0.442434D+01 -0.737675D+01
      2   0.265541D+03  0.268522D+03  0.132127D+04 -0.172095D+02 -0.900419D+02
      3  -0.952850D+02 -0.822083D+02 -0.490421D+03  0.807511D+01  0.342172D+02
               171           172           173           174           175 
      1  -0.203559D+02 -0.384936D+02 -0.147732D+02 -0.256651D+03 -0.825062D+02
      2  -0.208441D+03 -0.309041D+03 -0.344221D+03 -0.214052D+04 -0.704121D+03
      3   0.975923D+02  0.102987D+03  0.102953D+03  0.674878D+03  0.248201D+03
               176           177           178           179           180 
      1  -0.129955D+02 -0.439150D+03 -0.122866D+02 -0.645461D+01 -0.826694D+02
      2  -0.840617D+03 -0.435197D+04 -0.773232D+02 -0.123353D+03 -0.745711D+03
      3   0.257040D+03  0.151385D+04  0.282115D+02  0.395500D+02  0.234698D+03
               181           182           183           184           185 
      1   0.100398D+03  0.120405D+02  0.444443D+03  0.800640D+02  0.137624D+02
      2   0.799952D+03  0.785365D+03  0.409543D+04  0.648276D+03  0.670710D+03
      3  -0.274336D+03 -0.243956D+03 -0.137507D+04 -0.222584D+03 -0.204605D+03
               186           187           188           189           190 
      1   0.463063D+03  0.196432D+02 -0.355411D+01 -0.106148D+02 -0.100388D+03
      2   0.405646D+04  0.102659D+03  0.229540D+02 -0.458844D+02 -0.790142D+03
      3  -0.139720D+04 -0.402683D+02 -0.115588D+02  0.105628D+02  0.266732D+03
               191           192           193           194           195 
      1  -0.117549D+02 -0.453791D+03  0.900007D+02  0.165256D+02  0.422734D+03
      2  -0.725748D+03 -0.396593D+04  0.719005D+03  0.652578D+03  0.362143D+04
      3   0.230512D+03  0.130664D+04 -0.243319D+03 -0.213825D+03 -0.117759D+04
               196           197           198           199           200 
      1  -0.201068D+02  0.648890D+01 -0.706955D+02 -0.215320D+03  0.606271D+01
      2  -0.137518D+03 -0.350682D+02 -0.558702D+03 -0.168378D+04 -0.133345D+04
      3   0.447357D+02  0.778186D+01  0.176998D+03  0.581913D+03  0.430918D+03
               201           202           203           204           205 
      1  -0.769506D+03  0.331811D+02  0.974787D+01  0.143379D+03 -0.706145D+02
      2  -0.715082D+04  0.251444D+03  0.277002D+03  0.131138D+04 -0.520379D+03
      3   0.242001D+04 -0.927458D+02 -0.990411D+02 -0.469263D+03  0.185362D+03
               206           207           208           209           210 
[...]
 .00005185,-0.00000195,-0.00000481,0.00000357,-0.00015903,-0.00007334,-
 0.00026073,0.00043014,-0.00033955,-0.00062118,0.00086088,0.00008759,0.
 00046003,-0.00011963,-0.00024366,-0.00018152,0.00030643,-0.00074931,-0
 .00085377,0.00006916,-0.00091742,0.00346493,-0.00021144,0.00040197,-0.
 00441312,0.00047802,-0.00624411,-0.02668785,0.00078889,-0.01390352,0.4
 2593591,0.00121998,-0.00006926,0.00331746,-0.00981167,0.01040359,0.001
 51238,-0.05361004,0.00967670,-0.07399523,-0.01436150,-0.00856834,0.002
 17520,0.00141257,-0.00002052,0.00344552,-0.00021723,-0.00000943,-0.001
 73842,-0.00048861,0.00007289,0.00064965,-0.00019579,0.00023808,-0.0017
 5385,-0.00488994,0.01799265,-0.03103692,-0.01232314,-0.01526428,-0.030
 21570,0.00081764,-0.00257300,-0.00146090,-0.00059805,0.00025236,-0.000
 11702,-0.00007648,0.00027326,-0.00001641,0.00002265,-0.00039075,0.0000
 2685,-0.00088374,-0.00017982,-0.00018917,0.00174137,0.00302003,-0.0015
 4393,0.00049524,-0.00000112,0.00005324,0.00000186,-0.00015108,0.000005
 04,-0.00014955,0.00006394,0.00000352,-0.00006028,-0.00018080,-0.000026
 11,0.00019189,0.00011307,0.00001483,-0.00026521,0.00008721,-0.00009693
 ,-0.00071326,0.00105690,0.00055259,-0.00080692,-0.00074223,0.00031997,
 0.00011944,0.00023473,0.00008071,-0.00005012,0.00006715,0.00000500,-0.
 00164290,-0.00060275,-0.00046187,0.00210562,-0.00043816,-0.00435581,0.
 00112863,-0.00128531,-0.00193893,0.00019038,-0.00047360,-0.00124047,-0
 .00000248,-0.00000230,-0.00000104,0.00000088,-0.00000239,0.00000688,0.
 00000510,0.00000189,-0.00000453,-0.00002060,0.00001379,0.00000291,-0.0
 0001889,0.00000151,0.00004632,-0.00007884,-0.00007635,0.00001276,-0.00
 002281,-0.00001022,-0.00002213,-0.00008193,0.00003500,0.00002840,-0.00
 000892,-0.00004056,-0.00007952,-0.00013221,0.00020680,0.00057179,-0.00
 005253,0.00002208,0.00000051,0.00002773,0.00006612,0.00009882,0.001044
 61,-0.00000183,-0.00007222,-0.00030154,-0.00055159,0.00035835,-0.00127
 910,0.00100530,0.00257062,-0.00323121,-0.00395324,0.00303484,0.0979942
 8,-0.01261275,0.12616634,-0.06068048,-0.00832706,-0.00992807,-0.237938
 04,-0.08265875,-0.03996337,0.00380855,-0.04760925,0.00141805,0.0051414
 2,0.00798172,-0.00031976,-0.00263887,-0.00116742,-0.00021241,-0.000929
 41,-0.00067397,-0.00007315,-0.00090175,-0.00040650,0.00024670,0.001275
 63,0.00697842,-0.00052940,-0.00468276,0.00984709,-0.00289578,-0.104754
 66,0.06357982,-0.01824160,-0.04512833,-0.01571969,-0.00452861,0.002789
 17,-0.00616124,0.00010874,-0.00263057,0.00055756,-0.00020930,-0.000012
 17,0.00117748,-0.00001622,0.00082234,-0.00094529,0.00012806,-0.0023814
 8,-0.00386023,-0.00002814,-0.00118219,0.00007968,0.00010002,0.00002916
 ,0.00049592,-0.00006933,0.00027625,-0.00023620,-0.00003048,0.00009769,
 0.00069059,0.00000974,-0.00042272,-0.00025898,0.00004547,0.00024097,-0
 .00021811,0.00019004,0.00246578,0.00239726,-0.00072217,-0.00126312,-0.
 00252535,0.00043062,0.00025522,0.00056002,0.00009537,0.00017380,-0.000
 33238,0.00013766,-0.00368455,-0.00287661,0.00245599,0.00268405,0.00444
 004,-0.00431515,-0.00091518,-0.00494788,0.00130827,0.00099105,0.003844
 24,0.00081479,0.00001388,-0.00000100,-0.00000020,0.00000636,0.00002989
 ,-0.00003646,-0.00003693,-0.00006771,-0.00007423,-0.00002244,-0.000079
 54,0.00004814,-0.00009366,-0.00012060,-0.00008940,-0.00010399,-0.00016
 944,0.00000706,-0.00002482,0.00002778,-0.00006718,0.00004826,-0.000053
 30,-0.00000227,-0.00015003,-0.00001173,-0.00033759,-0.00061187,-0.0008
 9336,0.00120094,-0.00009059,0.00021584,-0.00018904,-0.00002605,-0.0001
 3636,0.00000512,-0.00059524,-0.00130487,-0.00013981,0.00190024,0.00218
 153,0.00011025,0.00126942,-0.00116610,0.00020806,-0.00062541,0.0021690
 3,-0.00095010,-0.00625592,-0.00024037,-0.00052128,0.48348339,-0.026370
 99,0.02201973,-0.00543229,-0.08476515,-0.19165387,-0.01853378,-0.02938
 549,-0.04480095,-0.00576444,0.00560957,-0.00397728,0.00076950,0.000474
 88,-0.00024884,0.00016559,-0.00072616,-0.00025703,-0.00007307,-0.00090
 481,-0.00184395,-0.00005790,0.00722958,0.00103933,0.00151193,-0.002619
 20,0.00205802,-0.00065716,0.00341360,-0.06330606,0.00025867,0.04561907
 ,-0.11677651,0.00348944,0.01198276,-0.00573933,0.00059045,-0.00171787,
 -0.00259635,0.00029416,-0.00143976,0.00018437,0.00026724,0.00019084,0.
 00019690,0.00004949,0.00054911,-0.00025817,0.00011058,-0.00011656,0.00
 091286,0.00003608,0.00010393,-0.00100440,0.00021293,-0.00041464,0.0000
 5978,-0.00025354,-0.00003454,-0.00020105,0.00007556,-0.00088896,0.0003
 5326,-0.00050160,0.00087687,-0.00050806,-0.00011744,-0.00060565,-0.001
 50110,0.00050327,0.00094872,0.00143122,-0.00026480,-0.00035071,-0.0006
 4142,-0.00008816,-0.00016441,0.00035023,-0.00013104,0.00122286,0.00083
 223,0.00011932,-0.00214294,-0.00183072,0.00262936,0.00047988,0.0019006
 3,-0.00076681,-0.00103637,-0.00126908,-0.00020407,-0.00003169,0.000020
 43,0.00002813,-0.00000027,-0.00001515,-0.00000005,-0.00006060,-0.00009
 624,0.00016540,0.00022665,-0.00006835,0.00000800,0.00004074,0.00004065
 ,0.00002301,0.00010940,0.00015177,-0.00002275,0.00005678,-0.00004488,0
 .00003724,-0.00002120,-0.00010862,-0.00001238,0.00116149,0.00091009,-0
 .00076324,-0.00013100,0.00077403,-0.00084868,0.00003987,-0.00014129,0.
 00027621,-0.00001348,-0.00001480,-0.00000529,-0.00178122,0.00418717,0.
 00006493,0.00266245,-0.00008544,0.00010345,-0.00082399,-0.00017603,-0.
 00002308,-0.00331910,-0.00233906,-0.00052051,0.01554689,-0.03282044,0.
 00381456,0.05750085,0.45466560,-0.01463585,-0.00212682,0.00120673,-0.0
 3784691,-0.01966371,-0.06832576,-0.00106638,-0.01158162,0.00285148,0.0
 0038426,0.00207512,0.00313534,0.00007432,0.00005504,-0.00153589,-0.000
 24111,0.00007764,0.00084408,0.00006389,-0.00021027,-0.00196457,0.00055
 461,0.00134066,0.00391166,-0.00070278,0.00317031,-0.00190031,-0.020798
 24,0.01337164,-0.03088764,-0.00201284,-0.00888046,-0.02943707,0.001775
 33,-0.00095301,-0.00157068,0.00005567,-0.00015078,0.00010920,0.0001497
 1,-0.00002290,0.00010274,0.00017245,-0.00048404,0.00002677,-0.00075119
 ,-0.00062042,-0.00015010,0.00119996,-0.00005777,0.00012484,0.00004142,
 -0.00050555,0.00003458,-0.00042884,0.00031983,-0.00000330,-0.00010114,
 -0.00077682,0.00002847,0.00035105,0.00043741,-0.00017587,-0.00043396,0
 .00016047,-0.00013059,-0.00147677,0.00071533,-0.00059314,-0.00113410,-
 0.00115403,0.00012290,0.00022398,0.00034583,0.00022298,-0.00011649,0.0
 0013531,-0.00003920,0.00026127,0.00052242,-0.00308086,0.00177973,0.004
 13509,-0.00597006,-0.00010178,-0.00417960,0.00054637,0.00190990,0.0017
 1138,0.00029166,-0.00001041,0.00000870,0.00001747,0.00000746,-0.000005
 67,0.00001571,0.00000358,-0.00000845,0.00006916,-0.00003637,-0.0000319
 7,0.00005561,-0.00000681,-0.00001823,0.00001221,-0.00011702,-0.0001008
 8,0.00001732,-0.00001546,-0.00000241,-0.00000373,0.00000341,-0.0000358
 1,0.00006434,0.00007146,0.00053210,-0.00014248,-0.00028361,0.00042200,
 0.00066611,-0.00000277,-0.00011912,0.00020263,0.00003734,-0.00004128,0
 .00001063,-0.00028127,0.00021132,0.00034249,0.00015136,0.00086494,-0.0
 0020696,0.00048428,-0.00079255,0.00052971,-0.00123351,0.00045868,0.001
 98450,-0.00048508,-0.00027646,0.00256228,0.07961103,0.01930317,0.12064
 971,-0.13111534,-0.02209285,-0.01240534,0.02007136,0.01584759,0.003667
 97,-0.00453352,0.00428811,-0.00136314,-0.00108587,-0.00158142,0.000299
 79,0.00037661,-0.00020308,-0.00007236,-0.00050746,0.00113239,0.0000239
 7,-0.00624282,-0.00058003,-0.00078394,0.00040024,-0.03167408,-0.003043
 82,-0.00047350,-0.00235877,-0.00027771,-0.00439323,0.00516858,-0.00207
 908,-0.11039417,0.01114178,-0.01014544,-0.09558021,0.00461920,-0.01047
 861,-0.00356179,-0.00408917,0.00061615,-0.00063699,0.00136636,0.000067
 55,0.00054914,0.00055990,0.00017469,0.00075994,-0.00070919,0.00005614,
 -0.00042807,0.00062540,0.00004429,0.00034197,-0.00026979,0.00033926,-0
 .00046774,0.00042672,-0.00022117,-0.00007244,-0.00049959,0.00017913,-0
 .00096516,0.00052110,-0.00104103,0.00075692,-0.00073886,-0.00046866,0.
 00078440,-0.00090580,0.00048258,0.00118635,0.00077979,-0.00010109,-0.0
 0027287,-0.00055305,-0.00010069,-0.00001187,0.00015248,-0.00000384,-0.
 00007200,-0.00016929,0.00039119,-0.00138386,-0.00062943,0.00142792,0.0
 0026089,0.00154130,-0.00083952,-0.00169057,-0.00070494,0.00011026,-0.0
 0003151,0.00002387,-0.00000815,0.00001869,0.00003136,-0.00004786,-0.00
 028039,-0.00029586,0.00025765,0.00043688,-0.00059030,0.00067645,0.0000
 0267,0.00002360,0.00002462,0.00009770,0.00010738,-0.00001982,0.0000417
 3,-0.00000928,0.00004182,-0.00008280,-0.00002778,-0.00005251,0.0012906
 6,0.00112895,-0.00070324,-0.00026513,0.00070458,-0.00064177,0.00001446
 ,-0.00004545,0.00005491,-0.00005743,-0.00003039,0.00001167,-0.00333207
 ,0.00087500,-0.00034982,0.00209397,-0.00123716,-0.00005274,-0.00184850
 ,0.00069819,-0.00029163,0.00229099,0.00046617,0.00060846,-0.00397222,0
 .00023644,-0.00161903,-0.02776734,0.00367031,-0.00388541,0.40247774,-0
 .02209390,-0.29237427,-0.02346564,0.03509028,-0.05942257,0.00167312,0.
 00461415,0.00693316,-0.00027876,-0.00082460,-0.00196342,0.00033767,-0.
 00007920,-0.00052886,-0.00014751,0.00016317,-0.00261583,0.00037933,-0.
 00027298,0.00867027,-0.00092480,-0.05190738,-0.03868000,-0.00934831,0.
 00077811,-0.00274930,0.00051750,-0.00838809,0.00277601,-0.00328004,-0.
 05062960,-0.05174768,-0.00889570,0.06492255,-0.06942499,0.00714724,0.0
 1083043,0.00158464,-0.00034566,-0.00153270,-0.00288274,0.00008522,-0.0
 0100067,0.00021605,-0.00027574,0.00087663,0.00004435,0.00013310,-0.000
 34689,-0.00082222,0.00008363,-0.00109688,0.00093090,-0.00054408,0.0010
 7999,-0.00103879,0.00018461,-0.00004323,0.00157437,-0.00034747,0.00071
 291,-0.00114702,0.00115599,-0.00028054,0.00067341,0.00016021,0.0001675
 2,-0.00098013,0.00035624,0.00120795,0.00082873,0.00001377,-0.00023747,
 -0.00034246,-0.00005913,0.00021039,-0.00018682,0.00006371,0.00007203,-
 0.00010977,-0.00035603,-0.00096606,-0.00056319,0.00088945,0.00041008,0
 .00137946,-0.00066970,-0.00133521,-0.00066725,-0.00008501,-0.00000731,
 -0.00002027,-0.00004582,-0.00002252,-0.00008251,0.00002764,0.00022579,
 0.00023489,-0.00027395,-0.00008058,0.00072503,-0.00045616,-0.00002915,
 0.00001425,-0.00000163,0.00009293,0.00011119,0.00000163,0.00002869,-0.
 00002817,-0.00006878,0.00000781,0.00019861,-0.00013377,0.00024782,0.00
 108242,-0.00020072,-0.00009989,0.00021094,-0.00024886,0.00000518,-0.00
 005638,0.00004149,0.00000073,-0.00001678,-0.00000403,0.00432118,-0.004
 90377,-0.00014699,-0.00186693,0.00005078,0.00003421,0.00062390,0.00229
 567,0.00001217,0.00104431,-0.00054884,0.00037167,-0.00388820,-0.003168
 76,-0.00105876,0.01958075,-0.01086253,0.00392189,0.01287347,0.52241412
 ,-0.01170404,-0.02336146,-0.06507256,0.00472736,-0.00234794,0.00373306
 ,-0.00103793,0.00112900,0.00291515,0.00024952,-0.00034440,-0.00140305,
 -0.00007708,-0.00015079,0.00040101,0.00000389,0.00000497,-0.00165434,-
 0.00120702,0.00046279,0.00302810,-0.00488972,-0.00803327,0.00235728,-0
 .00017787,-0.00054425,-0.00004288,-0.00080791,0.00142622,-0.00212906,-
 0.01755291,-0.00145139,-0.03199788,-0.00331009,-0.00343607,-0.03054330
 ,0.00058182,-0.00001266,-0.00148641,-0.00013688,-0.00013287,0.00005365
 ,-0.00000782,0.00006639,-0.00003446,0.00019063,-0.00020874,0.00001189,
 -0.00042740,-0.00005961,-0.00014563,0.00029398,0.00025439,0.00005086,-
 0.00025841,-0.00006614,-0.00014812,0.00005545,0.00012943,-0.00002528,-
 0.00030159,0.00009733,-0.00011701,0.00025066,-0.00019639,-0.00017222,0
 .00025247,-0.00035443,0.00003814,0.00000003,0.00057066,-0.00012885,-0.
 00015326,-0.00013376,0.00004228,0.00005295,-0.00002620,0.00003867,-0.0
 0009259,-0.00024541,-0.00010215,-0.00003679,0.00017695,0.00019881,0.00
 003978,0.00035502,-0.00030420,-0.00004669,-0.00024797,-0.00003747,-0.0
 0000998,0.00001115,0.00002135,-0.00000347,-0.00000056,-0.00002661,-0.0
 0010634,-0.00016098,0.00015489,-0.00006409,-0.00000897,0.00042105,0.00
 000801,0.00001700,-0.00000704,0.00003318,0.00001058,0.00000910,0.00000
 996,-0.00000502,0.00000370,-0.00001411,0.00001305,-0.00004791,0.000192
 02,0.00057636,0.00000258,-0.00006399,-0.00012643,0.00023334,0.00001135
 ,-0.00000855,-0.00001595,-0.00000497,0.00001584,0.00003122,0.00009829,
 -0.00097755,0.00282354,-0.00014023,-0.00018149,0.00037532,-0.00019287,
 0.00045624,-0.00017054,0.00064454,-0.00002944,0.00059369,-0.00204633,-
 0.00059823,0.00232611,-0.00364824,0.00139687,0.00297287,0.04634553,0.0
 3554676,0.11034706,-0.04528253,0.02947073,-0.00518773,-0.00284628,-0.0
 0588941,-0.00036538,-0.00073798,0.00004028,0.00011393,-0.00026436,0.00
 077346,-0.00027497,-0.00238628,0.00191745,0.00011621,0.00059988,-0.009
 92617,-0.00049893,0.02241227,0.02927928,0.00236149,-0.19149179,0.08344
 216,-0.00473840,0.00025787,-0.00094096,0.00016664,-0.00201284,-0.00057
 237,-0.00024688,0.00052178,0.00393838,0.00032404,-0.05982227,-0.000391
 62,-0.00233909,-0.12344556,-0.04561596,-0.01186089,-0.00650925,-0.0075
 0239,0.00137138,-0.00122000,0.00402564,-0.00080242,0.00094301,0.000973
 09,0.00029959,0.00197256,-0.00224658,0.00047429,0.00005366,0.00165442,
 -0.00106975,-0.00099100,-0.00296822,-0.00114893,0.00021832,0.00376432,
 -0.00003241,0.00097632,-0.00481657,0.00467556,-0.00270528,0.00285001,-
 0.00151972,-0.00143500,0.00032049,-0.00034452,-0.00015117,-0.00072952,
 0.00022108,0.00037452,0.00037724,0.00011932,0.00001690,0.00011116,0.00
 010009,0.00055238,0.00029178,-0.00014898,-0.00044037,0.00026012,-0.000
 24028,-0.00004391,-0.00074653,0.00020940,0.00041451,0.00024480,0.00001
 112,-0.00008093,0.00019327,0.00009234,-0.00011917,-0.00028268,0.000028
 66,-0.00004438,0.00093718,-0.00084852,-0.00012459,0.00014636,-0.000197
 60,-0.00001192,-0.00002381,0.00000604,-0.00007403,-0.00006777,-0.00001
 474,-0.00015752,0.00000395,-0.00006170,0.00033230,0.00028710,-0.000010
 00,-0.00015074,0.00007594,0.00000271,-0.00002743,0.00002893,0.00004339
 ,-0.00001210,-0.00003162,0.00001791,0.00001657,0.00000337,-0.00000120,
 -0.01314189,-0.00608520,-0.00252286,-0.00087673,-0.00258097,0.00028187
 ,0.00157093,0.00050800,0.00021650,-0.00000801,-0.00244437,0.00008419,0
 .00074418,0.00209227,-0.00000404,-0.00122208,0.00014969,-0.00116137,-0
 .03272642,-0.01315877,-0.00552077,0.45858584,0.04799376,0.00394444,0.0
 0462030,-0.00684943,0.00532194,-0.00046952,0.00061329,-0.00215338,0.00
 010508,0.00072128,-0.00078680,0.00022750,0.00038475,-0.00081674,0.0000
 1772,-0.00687670,0.00100241,-0.00137527,0.00952335,-0.06223251,-0.0023
 4798,0.08545788,-0.24220041,-0.00434550,0.00132226,0.00050878,0.000765
 72,0.00153354,-0.00256354,0.00095681,-0.01298729,-0.00307194,-0.002836
 75,-0.06149171,-0.10364543,-0.01171217,0.01561021,-0.04859922,-0.00084
 072,0.00516747,0.00288264,-0.00013466,-0.00036576,-0.00149207,0.000113
 04,-0.00046522,0.00011965,-0.00010534,-0.00035698,-0.00063963,0.000072
 49,-0.00065941,0.00047833,-0.00025974,0.00099887,-0.00022073,0.0002879
 6,-0.00003580,0.00069017,-0.00012204,-0.00008641,-0.00091818,0.0007188
 5,0.00035132,0.00037340,0.00037751,0.00080995,0.00063567,0.00010571,-0
 .00062114,-0.00052347,-0.00009043,0.00013804,0.00025878,0.00005743,0.0
 0018213,-0.00038785,0.00012673,-0.00095439,-0.00027490,-0.00012100,0.0
 0112423,-0.00010777,-0.00000441,-0.00001515,0.00022501,0.00002221,0.00
 047973,-0.00028649,-0.00022183,0.00002501,-0.00007133,-0.00004112,-0.0
 0005229,-0.00008357,0.00012066,0.00028583,0.00036449,-0.00005609,-0.00
 021480,0.00072924,-0.00083619,-0.00004387,-0.00002798,-0.00001997,-0.0
 0002873,-0.00006277,0.00003773,-0.00001508,0.00000169,-0.00005447,-0.0
 0009243,0.00002145,-0.00005601,-0.00027345,0.00000420,-0.00003663,0.00
 003214,-0.00017816,0.00021864,0.00000491,0.00000638,0.00001028,0.00001
 228,0.00003797,0.00004242,-0.02175497,-0.02463996,-0.00277567,0.002522
 03,-0.00232154,0.00023365,0.00048274,-0.00052526,0.00012326,-0.0027731
 8,0.00131906,-0.00083803,0.00255722,0.00231311,0.00054082,-0.00116621,
 -0.00690130,-0.00149563,0.00098557,-0.00501393,0.00073398,-0.06113938,
 0.48950805,-0.00090495,0.00205401,0.00390516,-0.00169818,-0.00013621,0
 .00357280,0.00023339,-0.00024518,-0.00181052,-0.00003351,0.00011699,0.
 00059315,-0.00014252,0.00046891,-0.00141300,-0.00060264,-0.00068742,0.
 00321405,0.00295128,-0.00234112,0.00338605,-0.00749810,-0.00391759,-0.
 06208990,-0.00000816,-0.00017648,0.00006892,-0.00055987,-0.00027018,0.
 00008964,-0.00096540,0.00065348,-0.00192299,-0.00796474,-0.00696569,-0
 .03018267,-0.00511907,-0.00623337,-0.02831868,0.00026621,0.00063023,-0
 .00104431,0.00016160,0.00032347,-0.00007618,0.00001666,-0.00011980,0.0
 0004709,0.00191779,-0.00033599,0.00024655,0.00021562,-0.00049572,-0.00
 003161,-0.00087705,0.00059849,-0.00009658,-0.00061667,-0.00189708,-0.0
 0038671,0.00090171,0.00241070,-0.00307464,0.00028393,0.00152616,-0.002
 66521,-0.00124678,0.00027305,-0.00012385,-0.00024343,-0.00062468,0.000
 08221,0.00024376,0.00023838,0.00006959,-0.00010494,0.00015000,0.000017
 59,0.00041659,0.00014015,0.00008647,-0.00016358,0.00037851,-0.00038356
 ,-0.00012034,-0.00080128,0.00025197,0.00057220,0.00024883,-0.00000615,
 -0.00003961,-0.00000148,-0.00000227,-0.00008603,-0.00020057,0.00026283
 ,0.00006983,0.00033151,0.00049901,-0.00001116,0.00020188,0.00015298,0.
 00000342,-0.00001067,0.00000680,-0.00005610,-0.00004081,-0.00001066,-0
 .00003766,-0.00002560,-0.00000941,0.00013040,0.00000067,0.00002200,-0.
 00003041,-0.00003965,-0.00001511,-0.00001900,0.00000690,0.00004668,-0.
 00001110,-0.00001196,0.00000251,0.00001405,0.00000522,-0.00000296,-0.0
 0400108,-0.00281089,0.00201198,0.00023563,-0.00056312,0.00232505,-0.00
 033107,-0.00033911,0.00039875,0.00004918,0.00013421,-0.00020820,0.0003
 3155,0.00057690,0.00041821,-0.00054141,-0.00126249,0.00238564,-0.00480
 456,-0.00147522,0.00262818,0.02982432,0.02056068,0.10708330\\0.0000007
 6,-0.00000990,0.00001104,-0.00001371,-0.00000286,-0.00000758,-0.000022
 74,-0.00000191,-0.00001625,0.00000587,0.00000390,0.00001823,-0.0000073
 0,-0.00002166,-0.00001903,0.00001000,0.00000855,0.00001933,-0.00000425
 ,0.00000764,0.00000230,-0.00000057,0.00000109,-0.00000703,-0.00001842,
 0.00001021,-0.00000863,0.00000267,0.00000257,0.00000625,-0.00000771,-0
 .00000985,-0.00000792,-0.00000051,0.00000470,0.00000119,-0.00000413,-0
 .00000351,0.00000807,-0.00001021,-0.00000325,0.00000368,-0.00001116,0.
 00002097,-0.00001070,-0.00001689,-0.00001053,-0.00000279,0.00000918,-0
 .00001893,0.00000260,-0.00002316,-0.00000521,-0.00001529,0.00002636,-0
 .00000501,0.00001184,-0.00000546,0.00001843,-0.00001265,0.00002910,-0.
 00001150,0.00001320,-0.00002507,0.00001673,-0.00000271,-0.00000503,-0.
 00000650,-0.00000473,0.00001266,-0.00001287,0.00001886,0.00001761,0.00
 000247,-0.00000535,-0.00002324,-0.00001007,-0.00000586,0.00001484,0.00
 000481,-0.00000469,-0.00001834,0.00000776,-0.00000144,0.00001296,-0.00
 001830,-0.00001266,-0.00000948,0.00000612,-0.00000908,0.00000112,-0.00
 000135,-0.00000618,0.00000090,0.00000100,0.00000476,-0.00000338,0.0000
 0089,-0.00000816,0.00000563,-0.00000231,0.00000510,-0.00000494,-0.0000
 0483,0.00000345,-0.00000655,0.00000019,-0.00000443,-0.00000114,-0.0000
 0168,0.00000064,0.00002703,0.00003637,0.00000093,-0.00000093,0.0000027
 2,-0.00000030,0.00000214,0.00000057,-0.00000621,-0.00000017,0.00000027
 ,-0.00000112,-0.00000182,-0.00000375,0.00000086,0.00000985,0.00001041,
 0.00000147,0.00001752,-0.00002701,-0.00000385,-0.00000886,0.00002745,0
 .00000038,0.00002588,0.00001412,0.00000592,0.00000812,-0.00001503,0.00
 001377,-0.00000029,0.00000174,0.00001393,0.00001581,-0.00000095,0.0000
 0977,-0.00000057,-0.00000294,0.00000707\\\@


 O WAD SOME POWER THE GIFTIE GIE US       
 TO SEE OURSELS AS OTHERS SEE US.....     
 IT WOULD FRAE MONIE A BLUNDER FREE US,   
                     AND FOOLISH NOTION...
 WHAT AIRS IN DRESS AND GAIT WAD LEA'E US,
                     AND EV'N DEVOTION....
                                          
              (ROBERT BURNS 'TO A LOUSE') 
 Job cpu time:       2 days 19 hours 30 minutes  7.8 seconds.
 File lengths (MBytes):  RWF=   2911 Int=      0 D2E=      0 Chk=     24 Scr=      1
 Normal termination of Gaussian 09 at Thu May  9 19:34:24 2019.
