 Entering Gaussian System, Link 0=g09
 Input=static_limit_DQ_sulflower8_PN.gjf
 Output=static_limit_DQ_sulflower8_PN.log
 Initial command:
 /opt/local/g09/l1.exe "/home/scratch/vidal/Gau-25473.inp" -scrdir="/home/scratch/vidal/"
 Default is to use a total of  16 processors:
                               16 via shared-memory
                                1 via Linda
 Entering Link 1 = /opt/local/g09/l1.exe PID=     25474.
  
 Copyright (c) 1988,1990,1992,1993,1995,1998,2003,2009,2013,
            Gaussian, Inc.  All Rights Reserved.
  
 This is part of the Gaussian(R) 09 program.  It is based on
 the Gaussian(R) 03 system (copyright 2003, Gaussian, Inc.),
 the Gaussian(R) 98 system (copyright 1998, Gaussian, Inc.),
 the Gaussian(R) 94 system (copyright 1995, Gaussian, Inc.),
 the Gaussian 92(TM) system (copyright 1992, Gaussian, Inc.),
 the Gaussian 90(TM) system (copyright 1990, Gaussian, Inc.),
 the Gaussian 88(TM) system (copyright 1988, Gaussian, Inc.),
 the Gaussian 86(TM) system (copyright 1986, Carnegie Mellon
 University), and the Gaussian 82(TM) system (copyright 1983,
 Carnegie Mellon University). Gaussian is a federally registered
 trademark of Gaussian, Inc.
  
 This software contains proprietary and confidential information,
 including trade secrets, belonging to Gaussian, Inc.
  
 This software is provided under written license and may be
 used, copied, transmitted, or stored only in accord with that
 written license.
  
 The following legend is applicable only to US Government
 contracts under FAR:
  
                    RESTRICTED RIGHTS LEGEND
  
 Use, reproduction and disclosure by the US Government is
 subject to restrictions as set forth in subparagraphs (a)
 and (c) of the Commercial Computer Software - Restricted
 Rights clause in FAR 52.227-19.
  
 Gaussian, Inc.
 340 Quinnipiac St., Bldg. 40, Wallingford CT 06492
  
  
 ---------------------------------------------------------------
 Warning -- This program may not be used in any manner that
 competes with the business of Gaussian, Inc. or will provide
 assistance to any competitor of Gaussian, Inc.  The licensee
 of this program is prohibited from giving any competitor of
 Gaussian, Inc. access to this program.  By using this program,
 the user acknowledges that Gaussian, Inc. is engaged in the
 business of creating and licensing software in the field of
 computational chemistry and represents and warrants to the
 licensee that it is not a competitor of Gaussian, Inc. and that
 it will not use this program in any manner prohibited above.
 ---------------------------------------------------------------
  

 Cite this work as:
 Gaussian 09, Revision D.01,
 M. J. Frisch, G. W. Trucks, H. B. Schlegel, G. E. Scuseria, 
 M. A. Robb, J. R. Cheeseman, G. Scalmani, V. Barone, B. Mennucci, 
 G. A. Petersson, H. Nakatsuji, M. Caricato, X. Li, H. P. Hratchian, 
 A. F. Izmaylov, J. Bloino, G. Zheng, J. L. Sonnenberg, M. Hada, 
 M. Ehara, K. Toyota, R. Fukuda, J. Hasegawa, M. Ishida, T. Nakajima, 
 Y. Honda, O. Kitao, H. Nakai, T. Vreven, J. A. Montgomery, Jr., 
 J. E. Peralta, F. Ogliaro, M. Bearpark, J. J. Heyd, E. Brothers, 
 K. N. Kudin, V. N. Staroverov, T. Keith, R. Kobayashi, J. Normand, 
 K. Raghavachari, A. Rendell, J. C. Burant, S. S. Iyengar, J. Tomasi, 
 M. Cossi, N. Rega, J. M. Millam, M. Klene, J. E. Knox, J. B. Cross, 
 V. Bakken, C. Adamo, J. Jaramillo, R. Gomperts, R. E. Stratmann, 
 O. Yazyev, A. J. Austin, R. Cammi, C. Pomelli, J. W. Ochterski, 
 R. L. Martin, K. Morokuma, V. G. Zakrzewski, G. A. Voth, 
 P. Salvador, J. J. Dannenberg, S. Dapprich, A. D. Daniels, 
 O. Farkas, J. B. Foresman, J. V. Ortiz, J. Cioslowski, 
 and D. J. Fox, Gaussian, Inc., Wallingford CT, 2013.
 
 ******************************************
 Gaussian 09:  EM64L-G09RevD.01 24-Apr-2013
                11-Jun-2019 
 ******************************************
 ---------------------------------------------------------
 # freq=Raman wb97xd nosymm def2svp integral=ultrafinegrid
 ---------------------------------------------------------
 1/10=4,30=1,38=1/1,3;
 2/12=2,15=1,17=6,18=5,40=1/2;
 3/5=43,7=101,11=2,16=1,25=1,30=1,71=2,74=-58,75=-5,140=1/1,2,3;
 4//1;
 5/5=2,38=5,98=1/2;
 8/6=4,10=90,11=11/1;
 10/13=10,15=4,31=1/2;
 11/6=3,8=1,9=11,15=111,16=1,31=1/1,2,10;
 10/6=1,31=1/2;
 6/7=2,8=2,9=2,10=2,18=1,28=1/1;
 7/8=1,10=1,25=1,30=1/1,2,3,16;
 1/10=4,30=1/3;
 99//99;
 -----
 Title
 -----
 Symbolic Z-matrix:
 Charge =  2 Multiplicity = 1
 C                     0.32041   1.96141  -1.04775 
 C                     1.50439   1.2349   -0.87484 
 C                     1.82957  -0.12875  -0.80384 
 C                     1.11128  -1.32581  -0.89652 
 C                    -0.22232  -1.66345  -1.16658 
 C                    -1.4067   -0.93578  -1.34105 
 C                    -1.7388    0.42447  -1.36581 
 C                    -1.02558   1.62357  -1.2254 
 P                     3.54717  -2.02046  -0.27478 
 P                     4.0409    1.1504   -0.2926 
 P                     2.1747    3.74786  -0.59615 
 P                    -0.9781    4.22913  -1.00513 
 P                    -3.53154   2.31617  -1.39128 
 P                    -4.00298  -0.85355  -1.55845 
 P                    -2.11741  -3.45571  -1.36857 
 P                     1.0076   -3.93895  -0.76712 
 C                    -1.08135   0.29361   2.03064 
 N                    -1.8416   -0.84305   1.94074 
 C                    -3.18024  -0.78519   1.73964 
 C                    -3.83965   0.42197   1.64998 
 C                    -3.09986   1.60371   1.72228 
 C                    -1.71215   1.52395   1.90986 
 C                     0.37538   0.16807   2.27991 
 N                     0.86929  -1.03855   2.69339 
 C                    -0.07377  -2.10417   3.05789 
 C                    -1.19471  -2.15864   2.05459 
 C                     1.25272   1.23425   2.14638 
 C                     2.61606   1.08159   2.44847 
 C                     3.08651  -0.17879   2.82499 
 C                     2.19473  -1.22356   2.91772 
 H                    -3.70232  -1.74179   1.6929 
 H                    -4.92313   0.42791   1.52753 
 H                    -3.59436   2.57492   1.71745 
 H                    -1.13647   2.44397   2.00373 
 H                     0.45863  -3.0625    3.05965 
 H                    -0.44404  -1.90826   4.07692 
 H                    -1.94444  -2.89391   2.36841 
 H                    -0.8123   -2.45615   1.07042 
 H                     0.8889    2.20975   1.82434 
 H                     3.2701    1.95304   2.46149 
 H                     4.13869  -0.35367   3.05211 
 H                     2.49582  -2.22167   3.238 
 N                    -3.08408   0.62918  -1.47455 
 N                    -2.50366  -1.74321  -1.44066 
 N                    -0.43995  -3.0151   -1.1265 
 N                     1.88745  -2.42219  -0.64592 
 N                     3.14164  -0.3344   -0.48683 
 N                     2.57565   2.04266  -0.63207 
 N                     0.50578   3.30796  -0.89356 
 N                    -1.83876   2.71991  -1.22631 
 

 GradGradGradGradGradGradGradGradGradGradGradGradGradGradGradGradGradGrad
 Berny optimization.
 Initialization pass.
 Trust Radius=3.00D-01 FncErr=1.00D-07 GrdErr=1.00D-07
 Number of steps in this run=      2 maximum allowed number of steps=      2.
 GradGradGradGradGradGradGradGradGradGradGradGradGradGradGradGradGradGrad

                          Input orientation:                          
 ---------------------------------------------------------------------
 Center     Atomic      Atomic             Coordinates (Angstroms)
 Number     Number       Type             X           Y           Z
 ---------------------------------------------------------------------
      1          6           0        0.320407    1.961407   -1.047751
      2          6           0        1.504390    1.234904   -0.874843
      3          6           0        1.829565   -0.128747   -0.803844
      4          6           0        1.111282   -1.325813   -0.896524
      5          6           0       -0.222323   -1.663453   -1.166577
      6          6           0       -1.406697   -0.935783   -1.341054
      7          6           0       -1.738799    0.424469   -1.365807
      8          6           0       -1.025576    1.623573   -1.225398
      9         15           0        3.547171   -2.020459   -0.274784
     10         15           0        4.040901    1.150395   -0.292600
     11         15           0        2.174704    3.747861   -0.596151
     12         15           0       -0.978102    4.229127   -1.005132
     13         15           0       -3.531540    2.316173   -1.391284
     14         15           0       -4.002979   -0.853547   -1.558447
     15         15           0       -2.117405   -3.455705   -1.368573
     16         15           0        1.007604   -3.938950   -0.767115
     17          6           0       -1.081351    0.293609    2.030640
     18          7           0       -1.841600   -0.843054    1.940737
     19          6           0       -3.180241   -0.785192    1.739640
     20          6           0       -3.839651    0.421972    1.649975
     21          6           0       -3.099863    1.603711    1.722282
     22          6           0       -1.712145    1.523952    1.909856
     23          6           0        0.375381    0.168073    2.279907
     24          7           0        0.869289   -1.038549    2.693391
     25          6           0       -0.073767   -2.104170    3.057886
     26          6           0       -1.194711   -2.158640    2.054587
     27          6           0        1.252718    1.234248    2.146377
     28          6           0        2.616058    1.081591    2.448468
     29          6           0        3.086509   -0.178790    2.824991
     30          6           0        2.194730   -1.223563    2.917718
     31          1           0       -3.702324   -1.741794    1.692900
     32          1           0       -4.923125    0.427913    1.527531
     33          1           0       -3.594357    2.574919    1.717453
     34          1           0       -1.136472    2.443968    2.003732
     35          1           0        0.458629   -3.062496    3.059652
     36          1           0       -0.444036   -1.908255    4.076924
     37          1           0       -1.944440   -2.893909    2.368414
     38          1           0       -0.812296   -2.456151    1.070417
     39          1           0        0.888899    2.209750    1.824342
     40          1           0        3.270100    1.953041    2.461490
     41          1           0        4.138694   -0.353666    3.052112
     42          1           0        2.495815   -2.221669    3.237996
     43          7           0       -3.084079    0.629181   -1.474546
     44          7           0       -2.503659   -1.743211   -1.440659
     45          7           0       -0.439952   -3.015103   -1.126503
     46          7           0        1.887452   -2.422186   -0.645919
     47          7           0        3.141641   -0.334398   -0.486825
     48          7           0        2.575647    2.042656   -0.632069
     49          7           0        0.505776    3.307955   -0.893561
     50          7           0       -1.838762    2.719905   -1.226308
 ---------------------------------------------------------------------
                    Distance matrix (angstroms):
                    1          2          3          4          5
     1  C    0.000000
     2  C    1.399828   0.000000
     3  C    2.589554   1.403682   0.000000
     4  C    3.384401   2.590806   1.399102   0.000000
     5  C    3.667190   3.386314   2.587884   1.401939   0.000000
     6  C    3.385650   3.661101   3.378357   2.586493   1.400960
     7  C    2.589144   3.378776   3.654459   3.377377   2.588206
     8  C    1.399057   2.583540   3.376413   3.656938   3.384260
     9  P    5.183121   3.889783   2.609339   2.608189   3.889966
    10  P    3.882019   2.603850   2.605299   3.883169   5.182341
    11  P    2.614150   2.615711   3.897480   5.192616   5.945876
    12  P    2.613522   3.891672   5.187926   5.935881   5.943043
    13  P    3.883474   5.176528   5.921500   5.921541   5.180621
    14  P    5.184250   5.929591   5.925650   5.178498   3.886241
    15  P    5.949030   5.946678   5.192893   3.896625   2.616162
    16  P    5.946865   5.198766   3.898027   2.618393   2.617284
    17  C    3.771335   4.001740   4.084864   3.999807   3.845805
    18  N    4.633609   4.841596   4.639010   4.123423   3.598682
    19  C    5.250513   5.732545   5.656712   5.065452   4.238717
    20  C    5.191692   5.966099   6.201978   5.835336   5.036569
    21  C    4.415798   5.299078   5.803618   5.759687   5.224950
    22  C    3.615256   4.264293   4.758076   4.895781   4.673709
    23  C    3.780526   3.516424   3.422320   3.586497   3.948416
    24  N    4.826712   4.278345   3.739054   3.609511   4.059738
    25  C    5.791420   5.395030   4.736869   4.200897   4.249987
    26  C    5.375395   5.232862   4.630047   3.836699   3.400977
    27  C    3.405939   3.031684   3.300653   3.979091   4.641991
    28  C    4.274066   3.507664   3.558233   4.387359   5.353524
    29  C    5.218227   4.265021   3.840684   4.366561   5.393070
    30  C    5.420523   4.572105   3.896407   3.966454   4.766247
    31  H    6.116145   6.524102   6.279924   5.481693   4.504792
    32  H    6.039728   6.909094   7.165473   6.735404   5.807716
    33  H    4.831990   5.874765   6.563968   6.647678   6.136126
    34  H    3.415686   4.089276   4.826875   5.260716   5.268533
    35  H    6.490722   5.919587   5.041126   4.369594   4.503557
    36  H    6.466912   6.180276   5.670785   5.243419   5.253893
    37  H    6.354039   6.281739   5.652650   4.738795   4.120178
    38  H    5.028367   4.772312   3.988620   2.974336   2.445523
    39  H    2.938329   2.935090   3.641536   4.466853   5.018178
    40  H    4.584270   3.842469   4.131754   5.166008   6.199913
    41  H    6.061993   4.988395   4.500118   5.069716   6.207362
    42  H    6.371668   5.463174   4.600074   4.451263   5.205780
    43  N    3.680694   4.666968   5.016791   4.664458   3.679764
    44  N    4.674818   5.025313   4.667854   3.679416   2.299125
    45  N    5.034878   4.680423   3.685901   2.304977   1.369644
    46  N    4.672578   3.684216   2.299599   1.366483   2.301719
    47  N    3.680315   2.300838   1.365407   2.296326   3.680313
    48  N    2.294668   1.363449   2.302420   3.682511   4.674353
    49  N    1.367965   2.301113   3.683936   4.673163   5.031855
    50  N    2.295477   3.674972   4.663681   5.017903   4.672287
                    6          7          8          9         10
     6  C    0.000000
     7  C    1.400425   0.000000
     8  C    2.590161   1.402231   0.000000
     9  P    5.182110   5.925326   5.923905   0.000000
    10  P    5.926864   5.923147   5.173316   3.209112   0.000000
    11  P    5.942881   5.191610   3.892344   5.938052   3.212735
    12  P    5.193538   3.896687   2.615279   7.750408   5.930993
    13  P    3.884932   2.606360   2.605200   8.376222   7.740026
    14  P    2.606665   2.607095   3.887412   7.746886   8.385831
    15  P    2.618372   3.898602   5.197274   5.945059   7.765218
    16  P    3.895801   5.190432   5.940160   3.220621   5.943693
    17  C    3.603550   3.461967   3.517627   5.665078   5.689375
    18  N    3.311781   3.542657   4.095675   5.944213   6.600413
    19  C    3.557922   3.631093   4.385907   7.130348   7.747347
    20  C    4.087667   3.675395   4.198885   8.014693   8.149067
    21  C    4.324334   3.574829   3.604425   7.829811   7.433422
    22  C    4.088033   3.455364   3.211093   6.707899   6.171539
    23  C    4.183976   4.222171   4.045779   4.623459   4.584625
    24  N    4.633295   5.041789   5.102383   4.116462   4.875114
    25  C    4.742626   5.360542   5.757476   4.921879   6.224825
    26  C    3.615342   4.320599   5.009196   5.284932   6.623491
    27  C    4.893230   4.684053   4.087917   4.660435   3.705348
    28  C    5.883267   5.826258   5.201205   4.231523   3.090043
    29  C    6.173967   6.419525   6.046768   3.634908   3.520933
    30  C    5.584822   6.044605   5.970089   3.557557   4.398882
    31  H    3.889015   4.231290   5.196839   7.516955   8.500853
    32  H    4.738535   4.302482   4.919259   8.999377   9.175436
    33  H    5.144448   4.192138   4.020456   8.722840   8.022889
    34  H    4.762702   3.974288   3.333561   6.859975   5.809618
    35  H    5.231497   6.047504   6.521025   4.662981   6.466739
    36  H    5.588104   6.061463   6.397391   5.905903   6.968697
    37  H    4.228898   4.999833   5.845292   6.156882   7.698162
    38  H    2.912048   3.884787   4.686193   4.583050   6.198267
    39  H    5.018353   4.502119   3.648251   5.419170   3.941928
    40  H    6.684091   6.486432   5.670496   4.832460   2.970419
    41  H    7.098600   7.393810   6.991155   3.767802   3.668632
    42  H    6.152301   6.791834   6.863524   3.672255   5.120861
    43  N    2.297943   1.365104   2.299636   7.241098   7.241133
    44  N    1.365718   2.299880   3.683246   6.168361   7.247224
    45  N    2.303085   3.684417   4.676543   4.196652   6.174529
    46  N    3.680221   4.665981   5.018934   1.747510   4.186348
    47  N    4.666771   5.016690   4.663136   1.747060   1.746712
    48  N    5.023228   4.665977   3.673755   4.192901   1.748811
    49  N    4.676229   3.684511   2.300499   6.166439   4.184893
    50  N    3.682920   2.301843   1.364997   7.237729   6.156753
                   11         12         13         14         15
    11  P    0.000000
    12  P    3.215442   0.000000
    13  P    5.936597   3.213806   0.000000
    14  P    7.762908   5.940506   3.208944   0.000000
    15  P    8.420819   7.777322   5.942632   3.219110   0.000000
    16  P    7.776787   8.409350   7.753707   5.937328   3.218844
    17  C    5.425291   4.971406   4.669449   4.767958   5.165793
    18  N    6.606285   5.928810   4.892747   4.112901   4.225346
    19  C    7.394588   6.125895   4.420923   3.399845   4.233468
    20  C    7.230428   5.452750   3.596135   3.456530   5.207124
    21  C    6.147647   4.339754   3.223079   4.197251   6.009684
    22  C    5.131612   4.044001   3.851667   4.788481   5.975727
    23  C    4.931952   5.395883   5.775466   5.911574   5.714644
    24  N    5.952723   6.696293   6.877938   6.469262   5.591291
    25  C    7.256299   7.578693   7.161755   6.189773   5.059312
    26  C    7.298364   7.086069   6.112180   4.758535   3.775151
    27  C    3.832723   4.886498   6.047705   6.760692   6.760789
    28  C    4.071056   5.895110   7.352608   7.975699   7.586997
    29  C    5.287172   7.114818   8.234099   8.362456   7.443445
    30  C    6.087917   7.428825   7.992959   7.654055   6.476825
    31  H    8.361550   7.095961   5.099848   3.383878   3.849945
    32  H    8.118575   6.035463   3.744531   3.465843   5.598390
    33  H    6.325395   4.122337   3.120119   4.759503   6.933496
    34  H    4.407200   3.502162   4.156780   5.637339   6.865917
    35  H    7.917750   8.470799   8.041291   6.790599   5.138068
    36  H    7.790191   7.986237   7.568340   6.748029   5.903237
    37  H    8.358774   7.940546   6.618094   4.880666   3.782936
    38  H    7.084447   7.002024   6.019081   4.433929   2.941274
    39  H    3.142907   3.945820   5.467345   6.690106   7.164492
    40  H    3.710854   5.936771   7.825474   8.771232   8.541026
    41  H    5.830060   7.977770   9.257662   9.369844   8.264616
    42  H    7.102048   8.466700   8.851624   8.192188   6.635143
    43  N    6.176774   4.197035   1.747311   1.746396   4.199045
    44  N    7.263067   6.179468   4.187789   1.747380   1.756993
    45  N    7.270171   7.265205   6.168511   4.189757   1.751164
    46  N    6.176931   7.251234   7.236925   6.163644   4.198722
    47  N    4.196636   6.169820   7.237052   7.243168   6.178803
    48  N    1.752076   4.189148   6.160272   7.247378   7.266302
    49  N    1.751368   1.750114   4.187037   6.171632   7.270063
    50  N    4.190668   1.751401   1.748060   4.190908   6.183530
                   16         17         18         19         20
    16  P    0.000000
    17  C    5.486868   0.000000
    18  N    5.003499   1.370425   0.000000
    19  C    5.811029   2.377779   1.354898   0.000000
    20  C    6.953837   2.787401   2.382654   1.378443   0.000000
    21  C    7.334131   2.426076   2.760001   2.390318   1.396074
    22  C    6.663821   1.387888   2.370745   2.741610   2.410017
    23  C    5.152833   1.483227   2.460166   3.720625   4.269400
    24  N    4.517362   2.453341   2.820217   4.168036   5.039440
    25  C    4.377946   2.796391   2.442062   3.623211   4.748209
    26  C    3.997711   2.454985   1.470440   2.434724   3.717388
    27  C    5.942263   2.519142   3.732596   4.888220   5.180582
    28  C    6.175187   3.803463   4.881881   6.130612   6.538262
    29  C    5.600346   4.269100   5.050684   6.388886   7.050764
    30  C    4.728698   3.717718   4.170280   5.519995   6.381905
    31  H    5.750008   3.335631   2.081214   1.090799   2.168544
    32  H    7.714171   3.876904   3.358853   2.134071   1.090387
    33  H    8.353539   3.408469   3.847668   3.385606   2.167926
    34  H    7.281229   2.151234   3.362393   3.830693   3.394229
    35  H    3.964050   3.833255   3.386583   4.491093   5.709984
    36  H    5.449376   3.072727   2.766068   3.769746   4.780193
    37  H    4.431503   3.319531   2.097496   2.523737   3.886264
    38  H    2.981150   2.924996   2.102143   2.974412   4.217150
    39  H    6.673549   2.756091   4.097412   5.053192   5.058235
    40  H    7.089311   4.677015   5.849684   7.044564   7.317875
    41  H    6.102826   5.358287   6.102341   7.448195   8.137665
    42  H    4.604860   4.536568   4.732508   6.043687   7.046189
    43  N    6.173342   4.050908   3.921146   3.512932   3.221251
    44  N    4.195700   4.268666   3.561242   3.389670   4.003113
    45  N    1.754443   4.618064   4.011281   4.549336   5.574968
    46  N    1.757667   4.832525   4.805234   5.835422   6.794120
    47  N    4.198270   4.956378   5.566370   6.717630   7.340058
    48  N    6.185193   4.850033   5.870155   6.837542   6.999314
    49  N    7.265360   4.489566   5.547458   6.105270   5.803551
    50  N    7.256239   4.131379   4.767060   4.783526   4.190114
                   21         22         23         24         25
    21  C    0.000000
    22  C    1.402607   0.000000
    23  C    3.801227   2.516567   0.000000
    24  N    4.866082   3.720771   1.367790   0.000000
    25  C    4.968851   4.143130   2.443373   1.468931   0.000000
    26  C    4.230286   3.721581   2.815946   2.433674   1.505354
    27  C    4.388772   2.988358   1.387184   2.368934   3.706136
    28  C    5.785474   4.383963   2.425605   2.757931   4.213742
    29  C    6.531805   5.173382   2.787050   2.381715   3.707920
    30  C    6.120070   4.881424   2.377706   1.356962   2.437457
    31  H    3.399445   3.830533   4.540908   4.732355   3.893704
    32  H    2.178236   3.414362   5.357962   6.087840   5.680643
    33  H    1.089859   2.164318   4.676332   5.825268   6.007095
    34  H    2.154101   1.089331   2.746210   4.077577   4.788125
    35  H    6.018713   5.202864   3.324381   2.097415   1.096283
    36  H    4.993161   4.252567   2.865633   2.096515   1.101780
    37  H    4.688398   4.447666   3.842543   3.386007   2.144406
    38  H    4.705355   4.166006   3.124099   2.733380   2.149267
    39  H    4.035830   2.691294   2.153993   3.362600   4.588928
    40  H    6.422218   5.031022   3.405654   3.842822   5.291323
    41  H    7.615542   6.250001   3.876988   3.359577   4.561702
    42  H    6.945685   5.787967   3.335422   2.083736   2.578565
    43  N    3.342105   3.759920   5.126051   5.981818   6.089017
    44  N    4.643441   4.746241   5.077843   5.381793   5.125580
    45  N    6.043521   5.607225   4.732970   4.495828   4.298023
    46  N    6.832974   5.921241   4.190019   3.755276   4.203057
    47  N    6.898753   5.723354   3.944550   3.971547   5.102540
    48  N    6.160118   5.011546   4.103028   4.843982   6.150718
    49  N    4.769456   3.995120   4.466180   5.647164   6.726136
    50  N    3.395651   3.358848   4.869068   6.068242   6.688888
                   26         27         28         29         30
    26  C    0.000000
    27  C    4.184498   0.000000
    28  C    5.017589   1.404727   0.000000
    29  C    4.779349   2.412464   1.397016   0.000000
    30  C    3.620452   2.742843   2.389864   1.376742   0.000000
    31  H    2.567626   5.797837   6.961633   7.057823   6.045162
    32  H    4.568273   6.258928   7.623300   8.136690   7.438001
    33  H    5.317757   5.047327   6.429126   7.310508   7.027278
    34  H    4.603257   2.681790   4.016882   5.038541   5.038160
    35  H    2.135567   4.463928   4.711847   3.908526   2.532956
    36  H    2.171647   4.059718   4.577688   4.125910   2.962372
    37  H    1.095993   5.226165   6.050550   5.735049   4.497168
    38  H    1.096971   4.363601   5.115492   4.844129   3.738181
    39  H    4.845335   1.089805   2.155308   3.396456   3.832532
    40  H    6.083258   2.164668   1.089663   2.170378   3.384579
    41  H    5.718234   3.416238   2.177790   1.090531   2.133958
    42  H    3.876134   3.831486   3.398432   2.166298   1.090617
    43  N    4.878159   5.681989   6.934427   7.564059   7.112698
    44  N    3.755352   5.986857   7.022558   7.203691   6.429646
    45  N    3.379722   5.624399   6.237188   6.007903   5.148484
    46  N    4.106327   4.644278   4.731020   4.303229   3.772350
    47  N    5.347016   3.600338   3.301092   3.315928   3.643922
    48  N    6.251768   3.181733   3.227226   4.140902   4.838830
    49  N    6.439479   3.754918   4.536424   5.713598   6.157359
    50  N    5.914328   4.810346   6.002789   7.005266   6.999496
                   31         32         33         34         35
    31  H    0.000000
    32  H    2.495061   0.000000
    33  H    4.318133   2.532060   0.000000
    34  H    4.919433   4.316247   2.477963   0.000000
    35  H    4.574472   6.594970   7.071679   5.829276   0.000000
    36  H    4.040757   5.658562   5.965775   4.870261   1.783793
    37  H    2.207678   4.540281   5.749266   5.410983   2.506187
    38  H    3.041390   5.042390   5.785342   4.998733   2.437203
    39  H    6.058986   6.086268   4.499373   2.046745   5.432099
    40  H    7.928255   8.386133   6.932611   4.457402   5.780811
    41  H    8.078114   9.222352   8.376037   6.062444   4.569540
    42  H    6.405820   8.061430   7.899969   6.040288   2.211091
    43  N    4.004555   3.526339   3.772948   4.380073   6.836535
    44  N    3.354995   4.402016   5.459811   5.591556   5.546933
    45  N    4.495934   6.244765   7.020449   6.331269   4.281774
    46  N    6.097426   7.696162   7.785038   6.312228   4.022784
    47  N    7.319277   8.347407   7.661373   5.676658   5.217142
    48  N    7.690284   7.968867   6.623632   4.570375   6.646288
    49  N    7.063841   6.605247   4.915875   3.440604   7.497517
    50  N    5.648132   4.727595   3.430578   3.317003   7.555370
                   36         37         38         39         40
    36  H    0.000000
    37  H    2.478252   0.000000
    38  H    3.078131   1.777126   0.000000
    39  H    4.879427   5.862692   5.023256   0.000000
    40  H    5.595895   7.119903   6.167821   2.478301   0.000000
    41  H    4.946554   6.627578   5.732352   4.317371   2.534598
    42  H    3.073232   4.574270   3.961941   4.921186   4.316327
    43  N    6.650355   5.336598   4.599686   5.400501   7.590822
    44  N    5.891775   4.018192   3.110385   6.147811   7.888304
    45  N    5.319848   3.806917   2.297286   6.145927   7.163842
    46  N    5.291995   4.898175   3.199313   5.343606   5.541689
    47  N    6.013477   6.369592   4.749785   4.109626   3.733824
    48  N    6.848562   7.335105   5.883526   2.984459   3.171814
    49  N    7.267511   7.423419   6.230525   2.956321   4.553421
    50  N    7.175611   6.666941   5.755009   4.123937   6.347315
                   41         42         43         44         45
    41  H    0.000000
    42  H    2.494602   0.000000
    43  N    8.580505   7.840320   0.000000
    44  N    8.138592   6.863926   2.442597   0.000000
    45  N    6.745967   5.319503   4.515899   2.444441   0.000000
    46  N    4.798156   3.936383   5.891823   4.513809   2.449351
    47  N    3.676760   4.225302   6.376807   5.896097   4.519201
    48  N    4.664618   5.759188   5.894080   6.386388   5.909249
    49  N    6.494143   7.183785   4.516684   5.905107   6.397634
    50  N    7.967540   7.945925   2.446132   4.517459   5.903977
                   46         47         48         49         50
    46  N    0.000000
    47  N    2.440729   0.000000
    48  N    4.517590   2.447822   0.000000
    49  N    5.899565   4.514416   2.440026   0.000000
    50  N    6.376725   5.888974   4.505418   2.439955   0.000000
 Symmetry turned off by external request.
 Stoichiometry    C20H12N10P8(2+)
 Framework group  C1[X(C20H12N10P8)]
 Deg. of freedom   144
 Full point group                 C1      NOp   1
 Rotational constants (GHZ):      0.1088888      0.0971122      0.0715038
 Standard basis: def2SVP (5D, 7F)
   624 basis functions,  1130 primitive gaussians,   662 cartesian basis functions
   160 alpha electrons      160 beta electrons
       nuclear repulsion energy      6465.1824362846 Hartrees.
 NAtoms=   50 NActive=   50 NUniq=   50 SFac= 1.00D+00 NAtFMM=   60 NAOKFM=F Big=F
 Integral buffers will be    131072 words long.
 Raffenetti 2 integral format.
 Two-electron integral symmetry is turned off.
 Nuclear repulsion after empirical dispersion term =     6465.1064014834 Hartrees.
 One-electron integrals computed using PRISM.
   1 Symmetry operations used in ECPInt.
 ECPInt:  NShTT=   39340 NPrTT=  159940 LenC2=   35350 LenP2D=   91145.
 LDataN:  DoStor=T MaxTD1= 4 Len=   56
 NBasis=   624 RedAO= T EigKep=  5.69D-05  NBF=   624
 NBsUse=   624 1.00D-06 EigRej= -1.00D+00 NBFU=   624
 ExpMin= 1.05D-01 ExpMax= 8.00D+03 ExpMxC= 1.20D+03 IAcc=3 IRadAn=         5 AccDes= 0.00D+00
 Harris functional with IExCor= 4639 and IRadAn=       5 diagonalized for initial guess.
 HarFok:  IExCor= 4639 AccDes= 0.00D+00 IRadAn=         5 IDoV= 1 UseB2=F ITyADJ=14
 ICtDFT=  3500011 ScaDFX=  1.000000  1.000000  1.000000  1.000000
 FoFCou: FMM=F IPFlag=           0 FMFlag=      100000 FMFlg1=           0
         NFxFlg=           0 DoJE=T BraDBF=F KetDBF=T FulRan=T
         wScrn=  0.000000 ICntrl=     500 IOpCl=  0 I1Cent=   200000004 NGrid=           0
         NMat0=    1 NMatS0=      1 NMatT0=    0 NMatD0=    1 NMtDS0=    0 NMtDT0=    0
 Symmetry not used in FoFCou.
 Requested convergence on RMS density matrix=1.00D-08 within 128 cycles.
 Requested convergence on MAX density matrix=1.00D-06.
 Requested convergence on             energy=1.00D-06.
 No special actions if energy rises.
 Integral accuracy reduced to 1.0D-05 until final iterations.
 Initial convergence to 1.0D-05 achieved.  Increase integral accuracy.
 SCF Done:  E(RwB97XD) =  -4044.94374680     A.U. after   23 cycles
            NFock= 23  Conv=0.59D-08     -V/T= 2.0051
 DoSCS=F DFT=T ScalE2(SS,OS)=  1.000000  1.000000
 Range of M.O.s used for correlation:     1   624
 NBasis=   624 NAE=   160 NBE=   160 NFC=     0 NFV=     0
 NROrb=    624 NOA=   160 NOB=   160 NVA=   464 NVB=   464

 **** Warning!!: The largest alpha MO coefficient is  0.18960948D+02

          Differentiating once with respect to electric field.
                with respect to dipole field.
          Electric field/nuclear overlap derivatives assumed to be zero.
          There are     3 degrees of freedom in the 1st order CPHF.  IDoFFX=0 NUNeed=     3.
      3 vectors produced by pass  0 Test12= 2.47D-12 3.33D-08 XBig12= 6.16D+02 1.08D+01.
 AX will form     3 AO Fock derivatives at one time.
      3 vectors produced by pass  1 Test12= 2.47D-12 3.33D-08 XBig12= 8.79D+01 2.15D+00.
      3 vectors produced by pass  2 Test12= 2.47D-12 3.33D-08 XBig12= 2.85D+01 1.59D+00.
      3 vectors produced by pass  3 Test12= 2.47D-12 3.33D-08 XBig12= 1.09D+01 1.14D+00.
      3 vectors produced by pass  4 Test12= 2.47D-12 3.33D-08 XBig12= 4.54D+00 7.94D-01.
      3 vectors produced by pass  5 Test12= 2.47D-12 3.33D-08 XBig12= 1.28D+00 5.05D-01.
      3 vectors produced by pass  6 Test12= 2.47D-12 3.33D-08 XBig12= 5.44D-01 2.42D-01.
      3 vectors produced by pass  7 Test12= 2.47D-12 3.33D-08 XBig12= 2.23D-01 1.37D-01.
      3 vectors produced by pass  8 Test12= 2.47D-12 3.33D-08 XBig12= 4.14D-02 3.22D-02.
      3 vectors produced by pass  9 Test12= 2.47D-12 3.33D-08 XBig12= 1.42D-02 2.38D-02.
      3 vectors produced by pass 10 Test12= 2.47D-12 3.33D-08 XBig12= 3.18D-03 1.53D-02.
      3 vectors produced by pass 11 Test12= 2.47D-12 3.33D-08 XBig12= 1.08D-03 6.70D-03.
      3 vectors produced by pass 12 Test12= 2.47D-12 3.33D-08 XBig12= 3.06D-04 5.21D-03.
      3 vectors produced by pass 13 Test12= 2.47D-12 3.33D-08 XBig12= 9.26D-05 2.16D-03.
      3 vectors produced by pass 14 Test12= 2.47D-12 3.33D-08 XBig12= 1.48D-05 7.56D-04.
      3 vectors produced by pass 15 Test12= 2.47D-12 3.33D-08 XBig12= 2.20D-06 2.66D-04.
      3 vectors produced by pass 16 Test12= 2.47D-12 3.33D-08 XBig12= 7.76D-07 1.90D-04.
      3 vectors produced by pass 17 Test12= 2.47D-12 3.33D-08 XBig12= 2.41D-07 9.09D-05.
      3 vectors produced by pass 18 Test12= 2.47D-12 3.33D-08 XBig12= 5.16D-08 4.83D-05.
      3 vectors produced by pass 19 Test12= 2.47D-12 3.33D-08 XBig12= 5.19D-09 1.27D-05.
      3 vectors produced by pass 20 Test12= 2.47D-12 3.33D-08 XBig12= 1.62D-09 7.09D-06.
      3 vectors produced by pass 21 Test12= 2.47D-12 3.33D-08 XBig12= 2.66D-10 2.76D-06.
      3 vectors produced by pass 22 Test12= 2.47D-12 3.33D-08 XBig12= 3.12D-11 8.62D-07.
      3 vectors produced by pass 23 Test12= 2.47D-12 3.33D-08 XBig12= 8.28D-12 4.13D-07.
      3 vectors produced by pass 24 Test12= 2.47D-12 3.33D-08 XBig12= 1.09D-12 1.59D-07.
      1 vectors produced by pass 25 Test12= 2.47D-12 3.33D-08 XBig12= 1.04D-13 6.65D-08.
 InvSVY:  IOpt=1 It=  1 EMax= 3.55D-15
 Solved reduced A of dimension    76 with     3 vectors.
 End of Minotr F.D. properties file   721 does not exist.
 End of Minotr F.D. properties file   722 does not exist.
 End of Minotr F.D. properties file   788 does not exist.
   1 Symmetry operations used in ECPInt.
 ECPInt:  NShTT=   39340 NPrTT=  159940 LenC2=   35350 LenP2D=   91145.
 LDataN:  DoStor=T MaxTD1= 5 Len=  102
 Number of processors reduced to  10 by ecpmxn.
 Symmetrizing basis deriv contribution to polar:
 IMax=3 JMax=2 DiffMx= 0.00D+00
 G2DrvN: will do    51 centers at a time, making    1 passes.
 PxScal for G2LodP:  IOpCl= 0 ISclPx=1 IMOff=     1 NMtTot=     4 NTT=  195000 ScalPx= 3.92D+00
 Calling FoFCou, ICntrl=  3107 FMM=F I1Cent=   0 AccDes= 0.00D+00.
 End of G2Drv F.D. properties file   721 does not exist.
 End of G2Drv F.D. properties file   722 does not exist.
 End of G2Drv F.D. properties file   788 does not exist.
          IDoAtm=11111111111111111111111111111111111111111111111111
          Differentiating once with respect to electric field.
                with respect to dipole field.
          Differentiating once with respect to nuclear coordinates.
          There are   153 degrees of freedom in the 1st order CPHF.  IDoFFX=5 NUNeed=   153.
 Will reuse    3 saved solutions.
    147 vectors produced by pass  0 Test12= 7.42D-14 1.00D-09 XBig12= 1.16D-01 7.95D-02.
 AX will form   147 AO Fock derivatives at one time.
    147 vectors produced by pass  1 Test12= 7.42D-14 1.00D-09 XBig12= 2.33D-02 3.58D-02.
    147 vectors produced by pass  2 Test12= 7.42D-14 1.00D-09 XBig12= 9.76D-04 3.93D-03.
    147 vectors produced by pass  3 Test12= 7.42D-14 1.00D-09 XBig12= 2.17D-05 5.12D-04.
    147 vectors produced by pass  4 Test12= 7.42D-14 1.00D-09 XBig12= 3.27D-07 6.15D-05.
    147 vectors produced by pass  5 Test12= 7.42D-14 1.00D-09 XBig12= 3.09D-09 6.80D-06.
    147 vectors produced by pass  6 Test12= 7.42D-14 1.00D-09 XBig12= 2.78D-11 5.22D-07.
    110 vectors produced by pass  7 Test12= 7.42D-14 1.00D-09 XBig12= 2.15D-13 3.60D-08.
     34 vectors produced by pass  8 Test12= 7.42D-14 1.00D-09 XBig12= 2.29D-14 1.31D-08.
      3 vectors produced by pass  9 Test12= 7.42D-14 1.00D-09 XBig12= 1.65D-14 1.34D-08.
      1 vectors produced by pass 10 Test12= 7.42D-14 1.00D-09 XBig12= 1.63D-15 3.70D-09.
 InvSVY:  IOpt=1 It=  1 EMax= 8.33D-16
 Solved reduced A of dimension  1177 with   153 vectors.
 Isotropic polarizability for W=    0.000000      494.10 Bohr**3.
 End of Minotr F.D. properties file   721 does not exist.
 End of Minotr F.D. properties file   722 does not exist.
 End of Minotr F.D. properties file   788 does not exist.

 **********************************************************************

            Population analysis using the SCF density.

 **********************************************************************

 Alpha  occ. eigenvalues --  -77.47179 -77.47147 -77.47018 -77.46976 -77.46407
 Alpha  occ. eigenvalues --  -77.46346 -77.46077 -77.45958 -14.81188 -14.80856
 Alpha  occ. eigenvalues --  -14.74403 -14.74216 -14.74198 -14.74175 -14.74132
 Alpha  occ. eigenvalues --  -14.73916 -14.73910 -14.73893 -10.64951 -10.64931
 Alpha  occ. eigenvalues --  -10.62884 -10.62612 -10.61841 -10.61590 -10.58913
 Alpha  occ. eigenvalues --  -10.58847 -10.58732 -10.58726 -10.58505 -10.58468
 Alpha  occ. eigenvalues --  -10.58380 -10.58373 -10.58273 -10.58237 -10.58204
 Alpha  occ. eigenvalues --  -10.57903 -10.57889 -10.57690  -6.92559  -6.92531
 Alpha  occ. eigenvalues --   -6.92403  -6.92369  -6.91830  -6.91766  -6.91506
 Alpha  occ. eigenvalues --   -6.91398  -5.07955  -5.07930  -5.07802  -5.07773
 Alpha  occ. eigenvalues --   -5.07518  -5.07493  -5.07364  -5.07336  -5.07249
 Alpha  occ. eigenvalues --   -5.07187  -5.07133  -5.07098  -5.06970  -5.06925
 Alpha  occ. eigenvalues --   -5.06922  -5.06817  -5.06813  -5.06757  -5.06487
 Alpha  occ. eigenvalues --   -5.06378  -5.06345  -5.06274  -5.06025  -5.05916
 Alpha  occ. eigenvalues --   -1.40063  -1.36717  -1.35721  -1.34063  -1.33864
 Alpha  occ. eigenvalues --   -1.29513  -1.29492  -1.23455  -1.23407  -1.21665
 Alpha  occ. eigenvalues --   -1.19337  -1.18896  -1.18643  -1.13152  -1.12998
 Alpha  occ. eigenvalues --   -1.12702  -1.08774  -1.08669  -1.04815  -1.04139
 Alpha  occ. eigenvalues --   -1.04089  -1.02175  -1.01246  -1.01208  -1.00029
 Alpha  occ. eigenvalues --   -0.98875  -0.98737  -0.95126  -0.93044  -0.92957
 Alpha  occ. eigenvalues --   -0.92911  -0.92009  -0.89445  -0.89386  -0.88837
 Alpha  occ. eigenvalues --   -0.88569  -0.88323  -0.88112  -0.86272  -0.85605
 Alpha  occ. eigenvalues --   -0.85100  -0.83177  -0.82751  -0.82296  -0.82110
 Alpha  occ. eigenvalues --   -0.81346  -0.81119  -0.80487  -0.79683  -0.78507
 Alpha  occ. eigenvalues --   -0.77795  -0.76822  -0.76788  -0.76743  -0.76514
 Alpha  occ. eigenvalues --   -0.76188  -0.76032  -0.75397  -0.75351  -0.73271
 Alpha  occ. eigenvalues --   -0.73152  -0.72866  -0.72633  -0.71603  -0.71399
 Alpha  occ. eigenvalues --   -0.71191  -0.70894  -0.67227  -0.66681  -0.66449
 Alpha  occ. eigenvalues --   -0.64503  -0.64121  -0.64018  -0.63308  -0.63196
 Alpha  occ. eigenvalues --   -0.62990  -0.62852  -0.62612  -0.62457  -0.62335
 Alpha  occ. eigenvalues --   -0.61899  -0.61214  -0.60348  -0.57677  -0.56487
 Alpha  occ. eigenvalues --   -0.47802  -0.46880  -0.46734  -0.45381  -0.44459
 Alpha virt. eigenvalues --   -0.29437  -0.24148  -0.23851  -0.21784  -0.21692
 Alpha virt. eigenvalues --   -0.21390  -0.21353  -0.20836  -0.18405  -0.15826
 Alpha virt. eigenvalues --   -0.14840  -0.14707  -0.14479  -0.14336  -0.13554
 Alpha virt. eigenvalues --   -0.12325  -0.11985  -0.11100  -0.10395  -0.09458
 Alpha virt. eigenvalues --   -0.09184  -0.09156  -0.08993  -0.08646  -0.08487
 Alpha virt. eigenvalues --   -0.08017  -0.07105  -0.05638  -0.05472  -0.05204
 Alpha virt. eigenvalues --   -0.04392  -0.04098  -0.03238  -0.03098  -0.02367
 Alpha virt. eigenvalues --   -0.02160  -0.01424  -0.01224  -0.00514  -0.00180
 Alpha virt. eigenvalues --    0.00416   0.00624   0.01170   0.02049   0.02143
 Alpha virt. eigenvalues --    0.02762   0.03365   0.04601   0.05396   0.06143
 Alpha virt. eigenvalues --    0.06233   0.06915   0.07518   0.07676   0.08779
 Alpha virt. eigenvalues --    0.09309   0.09573   0.09959   0.11101   0.11631
 Alpha virt. eigenvalues --    0.12127   0.12310   0.12892   0.13011   0.14078
 Alpha virt. eigenvalues --    0.14476   0.15144   0.16231   0.16516   0.16756
 Alpha virt. eigenvalues --    0.17477   0.18460   0.18914   0.18976   0.20121
 Alpha virt. eigenvalues --    0.20323   0.20823   0.20855   0.22340   0.22768
 Alpha virt. eigenvalues --    0.23655   0.23938   0.24106   0.24538   0.24652
 Alpha virt. eigenvalues --    0.25215   0.25551   0.26285   0.26515   0.27484
 Alpha virt. eigenvalues --    0.28632   0.28812   0.29571   0.30042   0.30651
 Alpha virt. eigenvalues --    0.30931   0.31010   0.31142   0.32191   0.32438
 Alpha virt. eigenvalues --    0.32564   0.33132   0.33290   0.34255   0.34595
 Alpha virt. eigenvalues --    0.34810   0.35315   0.35786   0.35810   0.36288
 Alpha virt. eigenvalues --    0.36443   0.36734   0.37449   0.37706   0.38044
 Alpha virt. eigenvalues --    0.38524   0.38867   0.39372   0.39547   0.39946
 Alpha virt. eigenvalues --    0.40005   0.40243   0.40409   0.40696   0.41213
 Alpha virt. eigenvalues --    0.41602   0.41670   0.42260   0.42706   0.43060
 Alpha virt. eigenvalues --    0.43307   0.43575   0.44483   0.44635   0.44656
 Alpha virt. eigenvalues --    0.45018   0.45409   0.45528   0.45847   0.46254
 Alpha virt. eigenvalues --    0.46437   0.46553   0.46769   0.47030   0.47414
 Alpha virt. eigenvalues --    0.47588   0.48287   0.48481   0.48583   0.48861
 Alpha virt. eigenvalues --    0.51144   0.51329   0.51514   0.51760   0.52362
 Alpha virt. eigenvalues --    0.52582   0.52810   0.52917   0.53503   0.54112
 Alpha virt. eigenvalues --    0.54684   0.54874   0.55154   0.55485   0.55503
 Alpha virt. eigenvalues --    0.56351   0.56997   0.57132   0.57528   0.57742
 Alpha virt. eigenvalues --    0.58645   0.58725   0.58864   0.59002   0.59804
 Alpha virt. eigenvalues --    0.60099   0.60797   0.61045   0.61483   0.62408
 Alpha virt. eigenvalues --    0.62767   0.63369   0.63914   0.64503   0.64863
 Alpha virt. eigenvalues --    0.65442   0.65944   0.66461   0.66980   0.68044
 Alpha virt. eigenvalues --    0.68575   0.69513   0.70372   0.70943   0.72046
 Alpha virt. eigenvalues --    0.72188   0.73231   0.73917   0.74800   0.75272
 Alpha virt. eigenvalues --    0.75639   0.76015   0.76405   0.77909   0.78207
 Alpha virt. eigenvalues --    0.79011   0.79632   0.80194   0.80281   0.80606
 Alpha virt. eigenvalues --    0.81084   0.82134   0.82208   0.83084   0.84161
 Alpha virt. eigenvalues --    0.84291   0.85023   0.85472   0.86029   0.86230
 Alpha virt. eigenvalues --    0.86554   0.86809   0.87249   0.88399   0.88934
 Alpha virt. eigenvalues --    0.89611   0.89855   0.90178   0.91749   0.92166
 Alpha virt. eigenvalues --    0.92459   0.93533   0.94939   0.95398   0.95687
 Alpha virt. eigenvalues --    0.96077   0.96697   0.97036   0.97796   0.98169
 Alpha virt. eigenvalues --    0.99089   0.99757   1.00024   1.00740   1.01243
 Alpha virt. eigenvalues --    1.02683   1.03457   1.04115   1.04768   1.05760
 Alpha virt. eigenvalues --    1.06339   1.06477   1.06985   1.07081   1.08101
 Alpha virt. eigenvalues --    1.08831   1.09986   1.10311   1.11082   1.11597
 Alpha virt. eigenvalues --    1.12656   1.13335   1.13439   1.15396   1.16548
 Alpha virt. eigenvalues --    1.18921   1.19462   1.21267   1.21710   1.22185
 Alpha virt. eigenvalues --    1.22340   1.23267   1.24674   1.25184   1.25803
 Alpha virt. eigenvalues --    1.26602   1.26993   1.27929   1.28706   1.29857
 Alpha virt. eigenvalues --    1.31787   1.32605   1.33617   1.35138   1.36612
 Alpha virt. eigenvalues --    1.36931   1.37948   1.39356   1.42115   1.43463
 Alpha virt. eigenvalues --    1.46384   1.48788   1.49815   1.52512   1.53082
 Alpha virt. eigenvalues --    1.54577   1.54979   1.55385   1.55640   1.56004
 Alpha virt. eigenvalues --    1.57392   1.57706   1.58282   1.59195   1.59760
 Alpha virt. eigenvalues --    1.60314   1.60744   1.61140   1.61499   1.62921
 Alpha virt. eigenvalues --    1.63449   1.63829   1.63908   1.64296   1.65154
 Alpha virt. eigenvalues --    1.65903   1.66781   1.67098   1.67759   1.68432
 Alpha virt. eigenvalues --    1.69242   1.70089   1.70592   1.70784   1.72223
 Alpha virt. eigenvalues --    1.72776   1.73573   1.74598   1.75000   1.76100
 Alpha virt. eigenvalues --    1.77017   1.77442   1.78290   1.78847   1.79192
 Alpha virt. eigenvalues --    1.79516   1.80243   1.80571   1.81021   1.81210
 Alpha virt. eigenvalues --    1.81694   1.82424   1.83825   1.84146   1.85345
 Alpha virt. eigenvalues --    1.86361   1.86997   1.88416   1.89068   1.89118
 Alpha virt. eigenvalues --    1.91902   1.92848   1.93118   1.94523   1.94963
 Alpha virt. eigenvalues --    1.95588   1.95730   1.96364   1.97021   1.99368
 Alpha virt. eigenvalues --    2.01132   2.01535   2.01850   2.03285   2.06343
 Alpha virt. eigenvalues --    2.07592   2.07760   2.09933   2.10455   2.10627
 Alpha virt. eigenvalues --    2.10999   2.11545   2.12679   2.13255   2.14431
 Alpha virt. eigenvalues --    2.15175   2.16204   2.18041   2.18328   2.18681
 Alpha virt. eigenvalues --    2.19132   2.19518   2.20541   2.21682   2.22574
 Alpha virt. eigenvalues --    2.23297   2.24383   2.26739   2.27386   2.27960
 Alpha virt. eigenvalues --    2.28559   2.28713   2.29562   2.30053   2.30807
 Alpha virt. eigenvalues --    2.31718   2.31891   2.33118   2.33933   2.34649
 Alpha virt. eigenvalues --    2.36243   2.37045   2.37294   2.38250   2.38678
 Alpha virt. eigenvalues --    2.39251   2.39666   2.42477   2.43010   2.44103
 Alpha virt. eigenvalues --    2.44941   2.46433   2.47393   2.49234   2.49495
 Alpha virt. eigenvalues --    2.49924   2.50558   2.51179   2.51594   2.51909
 Alpha virt. eigenvalues --    2.52112   2.53107   2.54033   2.55492   2.57127
 Alpha virt. eigenvalues --    2.57978   2.59170   2.59318   2.63094   2.64640
 Alpha virt. eigenvalues --    2.64862   2.66047   2.68735   2.68880   2.70889
 Alpha virt. eigenvalues --    2.74336   2.75698   2.77198   2.77508   2.78266
 Alpha virt. eigenvalues --    2.79992   2.80820   2.85849   2.86957   2.87513
 Alpha virt. eigenvalues --    2.87988   2.88944   2.89239   2.92856   2.95110
 Alpha virt. eigenvalues --    2.96806   2.96944   2.97307   2.98431   3.03815
 Alpha virt. eigenvalues --    3.04041   3.05475   3.21944   3.22182   3.25540
 Alpha virt. eigenvalues --    3.27995   3.41641   3.52250   3.53233
          Condensed to atoms (all electrons):
               1          2          3          4          5          6
     1  C    5.205548   0.345532  -0.061732  -0.047131   0.017445  -0.049028
     2  C    0.345532   5.281431   0.336148  -0.057772  -0.049857   0.021159
     3  C   -0.061732   0.336148   5.211224   0.361667  -0.076242  -0.047120
     4  C   -0.047131  -0.057772   0.361667   5.256184   0.336601  -0.049217
     5  C    0.017445  -0.049857  -0.076242   0.336601   5.359303   0.323638
     6  C   -0.049028   0.021159  -0.047120  -0.049217   0.323638   5.288808
     7  C   -0.066139  -0.048365   0.016082  -0.045581  -0.076265   0.346990
     8  C    0.358970  -0.061012  -0.046237   0.019501  -0.049204  -0.058370
     9  P    0.000035   0.005441  -0.055738  -0.048577   0.008168   0.000265
    10  P    0.009210  -0.042989  -0.054755   0.005486   0.000086  -0.000037
    11  P   -0.051690  -0.050031   0.007757   0.000241  -0.000006  -0.000027
    12  P   -0.050602   0.005045   0.000039  -0.000023  -0.000014   0.000246
    13  P    0.008206   0.000293  -0.000007  -0.000035   0.000083   0.005916
    14  P    0.000057  -0.000034  -0.000003   0.000270   0.009303  -0.048948
    15  P   -0.000004  -0.000032  -0.000018   0.004069  -0.054307  -0.044157
    16  P   -0.000012   0.000251   0.007696  -0.042343  -0.056918   0.004323
    17  C   -0.000308   0.000314  -0.000373   0.002289   0.003178  -0.006665
    18  N   -0.000065   0.000077  -0.000067  -0.000926  -0.001999   0.006310
    19  C   -0.000035  -0.000018   0.000018   0.000095  -0.000927  -0.008897
    20  C   -0.000202   0.000002  -0.000005   0.000007   0.000160   0.000260
    21  C    0.001670   0.000051   0.000011  -0.000019  -0.000118  -0.001204
    22  C   -0.001666  -0.000614   0.000059   0.000214   0.000070  -0.000464
    23  C    0.000347   0.001073  -0.004163  -0.006014   0.002784   0.000727
    24  N    0.000029  -0.000570   0.001022   0.005773  -0.000882  -0.000338
    25  C   -0.000014   0.000029   0.000309  -0.000964  -0.002342   0.000273
    26  C    0.000067  -0.000195  -0.000614   0.002128   0.013179  -0.000384
    27  C   -0.000784   0.007742   0.000009  -0.002656   0.000148   0.000247
    28  C    0.002201  -0.004533  -0.007896  -0.000858  -0.000086  -0.000025
    29  C   -0.000277  -0.001996   0.003935   0.000478   0.000134   0.000006
    30  C   -0.000013   0.000732   0.001068  -0.002947  -0.000261   0.000026
    31  H    0.000001  -0.000001   0.000001   0.000019  -0.000049  -0.001174
    32  H    0.000003   0.000000   0.000000   0.000000   0.000005   0.000079
    33  H   -0.000007   0.000006   0.000000   0.000000  -0.000002  -0.000004
    34  H   -0.002996  -0.000403  -0.000059  -0.000016  -0.000011   0.000186
    35  H   -0.000001   0.000010   0.000104  -0.000339  -0.000292   0.000029
    36  H    0.000001  -0.000002  -0.000002   0.000031  -0.000003  -0.000007
    37  H    0.000000   0.000000  -0.000003   0.000087  -0.000218   0.000039
    38  H   -0.000007   0.000134   0.001675  -0.005311  -0.026122  -0.009437
    39  H   -0.008592  -0.003214   0.002333   0.000333   0.000018  -0.000067
    40  H   -0.000091  -0.000697   0.000395   0.000005  -0.000001   0.000000
    41  H    0.000002  -0.000023  -0.000023   0.000023   0.000002   0.000000
    42  H    0.000000   0.000005  -0.000138  -0.000145   0.000037   0.000002
    43  N    0.012925  -0.000566   0.000210  -0.000559   0.012983  -0.083510
    44  N   -0.000384   0.000158  -0.000323   0.012542  -0.079623   0.335569
    45  N    0.000199  -0.000474   0.013563  -0.077113   0.315004  -0.077886
    46  N   -0.000427   0.012002  -0.077837   0.340629  -0.081868   0.012389
    47  N    0.012744  -0.082580   0.340553  -0.079024   0.013095  -0.000581
    48  N   -0.071850   0.319426  -0.072725   0.012960  -0.000391   0.000171
    49  N    0.349280  -0.086234   0.012832  -0.000475   0.000197  -0.000500
    50  N   -0.074355   0.012943  -0.000404   0.000171  -0.000431   0.012695
               7          8          9         10         11         12
     1  C   -0.066139   0.358970   0.000035   0.009210  -0.051690  -0.050602
     2  C   -0.048365  -0.061012   0.005441  -0.042989  -0.050031   0.005045
     3  C    0.016082  -0.046237  -0.055738  -0.054755   0.007757   0.000039
     4  C   -0.045581   0.019501  -0.048577   0.005486   0.000241  -0.000023
     5  C   -0.076265  -0.049204   0.008168   0.000086  -0.000006  -0.000014
     6  C    0.346990  -0.058370   0.000265  -0.000037  -0.000027   0.000246
     7  C    5.224640   0.352038  -0.000013   0.000002   0.000056   0.007464
     8  C    0.352038   5.245068  -0.000027   0.000289   0.005334  -0.050058
     9  P   -0.000013  -0.000027  14.244050  -0.036719   0.000000   0.000000
    10  P    0.000002   0.000289  -0.036719  14.233334  -0.039776   0.000001
    11  P    0.000056   0.005334   0.000000  -0.039776  14.260575  -0.039616
    12  P    0.007464  -0.050058   0.000000   0.000001  -0.039616  14.263609
    13  P   -0.056043  -0.042875   0.000000   0.000000   0.000002  -0.038935
    14  P   -0.057586   0.005573   0.000000   0.000000   0.000000  -0.000001
    15  P    0.008279   0.000265   0.000005   0.000000   0.000000   0.000000
    16  P   -0.000021  -0.000028  -0.037838  -0.000003   0.000000   0.000000
    17  C   -0.004361   0.008149   0.000026  -0.000075  -0.000080   0.000243
    18  N    0.002376  -0.001551  -0.000003   0.000000   0.000000   0.000000
    19  C    0.002399   0.001499   0.000000   0.000000   0.000000  -0.000007
    20  C    0.004109  -0.002451   0.000000   0.000000   0.000000   0.000211
    21  C   -0.004353  -0.001250   0.000000   0.000000  -0.000010  -0.001222
    22  C    0.000414  -0.005403  -0.000002   0.000004   0.000216  -0.000550
    23  C   -0.001189  -0.000356   0.001702  -0.001645   0.000873  -0.000138
    24  N   -0.000059  -0.000015  -0.004636   0.000345   0.000001   0.000000
    25  C    0.000171   0.000008   0.000070  -0.000013   0.000000   0.000000
    26  C   -0.000677  -0.000057   0.000050   0.000004   0.000000   0.000000
    27  C    0.000172  -0.001188   0.000864  -0.011371  -0.005706   0.000369
    28  C    0.000027   0.000130  -0.006500   0.058551  -0.002863  -0.000007
    29  C   -0.000003  -0.000003   0.004093  -0.020155   0.000489  -0.000001
    30  C    0.000005  -0.000009   0.017781  -0.002488  -0.000016   0.000000
    31  H   -0.000019   0.000031   0.000000   0.000000   0.000000   0.000000
    32  H   -0.000095  -0.000031   0.000000   0.000000   0.000000  -0.000005
    33  H   -0.000025  -0.000045   0.000000   0.000000  -0.000002   0.000764
    34  H    0.001476  -0.001535   0.000000   0.000008  -0.001137   0.011315
    35  H    0.000000   0.000000  -0.000197  -0.000003   0.000000   0.000000
    36  H   -0.000001  -0.000001  -0.000021   0.000001   0.000000   0.000000
    37  H    0.000040   0.000000  -0.000004   0.000000   0.000000   0.000000
    38  H    0.001127   0.000074  -0.000150  -0.000004   0.000000   0.000000
    39  H   -0.000020  -0.002696  -0.000030  -0.002169   0.022600  -0.001240
    40  H    0.000000   0.000012  -0.000059  -0.002082   0.003785  -0.000012
    41  H    0.000000   0.000000   0.000804   0.000861  -0.000007   0.000000
    42  H    0.000000   0.000000   0.002379  -0.000066   0.000000   0.000000
    43  N    0.342588  -0.081123   0.000000   0.000000   0.000002   0.001221
    44  N   -0.077345   0.012069   0.000001   0.000000   0.000000   0.000001
    45  N    0.013616  -0.000449   0.001113   0.000002   0.000000   0.000000
    46  N   -0.000377   0.000166   0.221745   0.001289   0.000001   0.000000
    47  N    0.000208  -0.000535   0.218318   0.215391   0.001268   0.000001
    48  N   -0.000335   0.013671   0.001365   0.213222   0.211017   0.001276
    49  N    0.012746  -0.082727   0.000001   0.001296   0.216953   0.217762
    50  N   -0.075028   0.327651   0.000000   0.000001   0.001227   0.212914
              13         14         15         16         17         18
     1  C    0.008206   0.000057  -0.000004  -0.000012  -0.000308  -0.000065
     2  C    0.000293  -0.000034  -0.000032   0.000251   0.000314   0.000077
     3  C   -0.000007  -0.000003  -0.000018   0.007696  -0.000373  -0.000067
     4  C   -0.000035   0.000270   0.004069  -0.042343   0.002289  -0.000926
     5  C    0.000083   0.009303  -0.054307  -0.056918   0.003178  -0.001999
     6  C    0.005916  -0.048948  -0.044157   0.004323  -0.006665   0.006310
     7  C   -0.056043  -0.057586   0.008279  -0.000021  -0.004361   0.002376
     8  C   -0.042875   0.005573   0.000265  -0.000028   0.008149  -0.001551
     9  P    0.000000   0.000000   0.000005  -0.037838   0.000026  -0.000003
    10  P    0.000000   0.000000   0.000000  -0.000003  -0.000075   0.000000
    11  P    0.000002   0.000000   0.000000   0.000000  -0.000080   0.000000
    12  P   -0.038935  -0.000001   0.000000   0.000000   0.000243   0.000000
    13  P   14.229727  -0.036659  -0.000004   0.000000  -0.001653   0.000385
    14  P   -0.036659  14.246335  -0.039141   0.000006   0.001479  -0.003803
    15  P   -0.000004  -0.039141  14.294576  -0.043044  -0.000352   0.000190
    16  P    0.000000   0.000006  -0.043044  14.289341  -0.000089   0.000244
    17  C   -0.001653   0.001479  -0.000352  -0.000089   5.166993   0.385702
    18  N    0.000385  -0.003803   0.000190   0.000244   0.385702   6.499568
    19  C   -0.002706   0.019818   0.000013   0.000006  -0.033046   0.371871
    20  C   -0.011851   0.002402  -0.000066  -0.000001  -0.066035  -0.025066
    21  C    0.042019  -0.006283   0.000019   0.000000   0.005127  -0.036029
    22  C   -0.006686   0.000254   0.000000   0.000001   0.413684  -0.052417
    23  C    0.000005   0.000003  -0.000029  -0.000096   0.177400  -0.065753
    24  N    0.000000   0.000000   0.000003   0.000332  -0.065932  -0.014348
    25  C    0.000000  -0.000044   0.001139  -0.000377  -0.014148  -0.032679
    26  C    0.000019  -0.000360   0.003673  -0.007120  -0.039508   0.262232
    27  C   -0.000007  -0.000002   0.000003  -0.000010  -0.049944   0.005287
    28  C    0.000000   0.000000   0.000000   0.000018   0.015773  -0.000071
    29  C    0.000000   0.000000   0.000000  -0.000066   0.000646   0.000057
    30  C    0.000000   0.000000  -0.000001   0.000136   0.005955  -0.000330
    31  H   -0.000073   0.001812   0.002699  -0.000019   0.003583  -0.036728
    32  H    0.000627   0.002150  -0.000023   0.000000  -0.000329   0.003707
    33  H    0.001828  -0.000111   0.000000   0.000000   0.011692   0.000028
    34  H   -0.001244  -0.000014   0.000000   0.000000  -0.024340   0.003973
    35  H    0.000000   0.000000  -0.000162   0.003798   0.000574   0.003556
    36  H    0.000000   0.000001  -0.000024   0.000072   0.002912  -0.003479
    37  H    0.000002  -0.000266   0.001985  -0.000172   0.002505  -0.015425
    38  H   -0.000017   0.000568  -0.001356   0.023385  -0.004616  -0.025202
    39  H    0.000001   0.000000   0.000000   0.000001  -0.030919  -0.000060
    40  H    0.000000   0.000000   0.000000   0.000000  -0.000262   0.000000
    41  H    0.000000   0.000000   0.000000  -0.000004   0.000015   0.000000
    42  H    0.000000   0.000000   0.000000  -0.000121  -0.000264  -0.000009
    43  N    0.215986   0.217885   0.001266   0.000001  -0.000102  -0.000155
    44  N    0.001316   0.217072   0.203198   0.001405  -0.000012  -0.000715
    45  N    0.000002   0.001124   0.215804   0.210158   0.000002   0.000032
    46  N    0.000000   0.000001   0.001300   0.204182  -0.000079   0.000022
    47  N    0.000000   0.000000   0.000002   0.001225  -0.000064   0.000001
    48  N    0.000001   0.000000   0.000000   0.000001   0.000112   0.000000
    49  N    0.001288   0.000002   0.000000   0.000000  -0.000212   0.000001
    50  N    0.216143   0.001315   0.000001   0.000000  -0.000943  -0.000007
              19         20         21         22         23         24
     1  C   -0.000035  -0.000202   0.001670  -0.001666   0.000347   0.000029
     2  C   -0.000018   0.000002   0.000051  -0.000614   0.001073  -0.000570
     3  C    0.000018  -0.000005   0.000011   0.000059  -0.004163   0.001022
     4  C    0.000095   0.000007  -0.000019   0.000214  -0.006014   0.005773
     5  C   -0.000927   0.000160  -0.000118   0.000070   0.002784  -0.000882
     6  C   -0.008897   0.000260  -0.001204  -0.000464   0.000727  -0.000338
     7  C    0.002399   0.004109  -0.004353   0.000414  -0.001189  -0.000059
     8  C    0.001499  -0.002451  -0.001250  -0.005403  -0.000356  -0.000015
     9  P    0.000000   0.000000   0.000000  -0.000002   0.001702  -0.004636
    10  P    0.000000   0.000000   0.000000   0.000004  -0.001645   0.000345
    11  P    0.000000   0.000000  -0.000010   0.000216   0.000873   0.000001
    12  P   -0.000007   0.000211  -0.001222  -0.000550  -0.000138   0.000000
    13  P   -0.002706  -0.011851   0.042019  -0.006686   0.000005   0.000000
    14  P    0.019818   0.002402  -0.006283   0.000254   0.000003   0.000000
    15  P    0.000013  -0.000066   0.000019   0.000000  -0.000029   0.000003
    16  P    0.000006  -0.000001   0.000000   0.000001  -0.000096   0.000332
    17  C   -0.033046  -0.066035   0.005127   0.413684   0.177400  -0.065932
    18  N    0.371871  -0.025066  -0.036029  -0.052417  -0.065753  -0.014348
    19  C    4.828119   0.417180   0.015236  -0.080778   0.006243  -0.000371
    20  C    0.417180   4.906417   0.355199   0.045774   0.000553   0.000065
    21  C    0.015236   0.355199   4.847989   0.349916   0.016292  -0.000069
    22  C   -0.080778   0.045774   0.349916   5.034256  -0.052776   0.005586
    23  C    0.006243   0.000553   0.016292  -0.052776   5.116050   0.392854
    24  N   -0.000371   0.000065  -0.000069   0.005586   0.392854   6.508224
    25  C    0.004817  -0.000730   0.000027  -0.000405  -0.044005   0.265263
    26  C   -0.030824   0.004735   0.000084   0.005599  -0.015503  -0.031385
    27  C    0.000119  -0.000123   0.001367  -0.016457   0.443012  -0.057828
    28  C   -0.000002   0.000003  -0.000069   0.001496  -0.003844  -0.034196
    29  C   -0.000002   0.000000   0.000003  -0.000093  -0.057781  -0.026691
    30  C    0.000032  -0.000002  -0.000002   0.000089  -0.036373   0.366957
    31  H    0.417491  -0.026021   0.007088   0.000164  -0.000272  -0.000013
    32  H   -0.042390   0.441783  -0.043227   0.009380   0.000017   0.000000
    33  H    0.008940  -0.049309   0.434369  -0.042677  -0.000302   0.000000
    34  H   -0.000262   0.009552  -0.038536   0.425136  -0.028811  -0.000063
    35  H   -0.000126   0.000012  -0.000001   0.000023   0.003011  -0.014562
    36  H    0.000417  -0.000161   0.000039  -0.000282  -0.003189  -0.027526
    37  H   -0.004580   0.001976  -0.000100  -0.000104   0.000699   0.003433
    38  H   -0.001458  -0.000309   0.000102  -0.000504   0.002599  -0.004396
    39  H    0.000018  -0.000059   0.000996   0.007458  -0.015011   0.004132
    40  H    0.000000   0.000000  -0.000001   0.000034   0.011781   0.000054
    41  H    0.000000   0.000000   0.000000  -0.000001  -0.000245   0.003570
    42  H    0.000000   0.000000   0.000000   0.000002   0.003647  -0.035226
    43  N   -0.002397  -0.003469  -0.003198  -0.000394  -0.000015   0.000000
    44  N    0.002286  -0.001876   0.000182   0.000078  -0.000036   0.000002
    45  N    0.000053   0.000005  -0.000001   0.000002   0.000011  -0.000082
    46  N    0.000001   0.000000   0.000000  -0.000002   0.000170  -0.000629
    47  N    0.000000   0.000000   0.000000  -0.000002  -0.000252  -0.000151
    48  N    0.000000   0.000000  -0.000001   0.000006  -0.000152  -0.000008
    49  N   -0.000001   0.000002  -0.000052  -0.000186  -0.000157   0.000000
    50  N    0.000042  -0.000256  -0.001008  -0.000991   0.000149   0.000000
              25         26         27         28         29         30
     1  C   -0.000014   0.000067  -0.000784   0.002201  -0.000277  -0.000013
     2  C    0.000029  -0.000195   0.007742  -0.004533  -0.001996   0.000732
     3  C    0.000309  -0.000614   0.000009  -0.007896   0.003935   0.001068
     4  C   -0.000964   0.002128  -0.002656  -0.000858   0.000478  -0.002947
     5  C   -0.002342   0.013179   0.000148  -0.000086   0.000134  -0.000261
     6  C    0.000273  -0.000384   0.000247  -0.000025   0.000006   0.000026
     7  C    0.000171  -0.000677   0.000172   0.000027  -0.000003   0.000005
     8  C    0.000008  -0.000057  -0.001188   0.000130  -0.000003  -0.000009
     9  P    0.000070   0.000050   0.000864  -0.006500   0.004093   0.017781
    10  P   -0.000013   0.000004  -0.011371   0.058551  -0.020155  -0.002488
    11  P    0.000000   0.000000  -0.005706  -0.002863   0.000489  -0.000016
    12  P    0.000000   0.000000   0.000369  -0.000007  -0.000001   0.000000
    13  P    0.000000   0.000019  -0.000007   0.000000   0.000000   0.000000
    14  P   -0.000044  -0.000360  -0.000002   0.000000   0.000000   0.000000
    15  P    0.001139   0.003673   0.000003   0.000000   0.000000  -0.000001
    16  P   -0.000377  -0.007120  -0.000010   0.000018  -0.000066   0.000136
    17  C   -0.014148  -0.039508  -0.049944   0.015773   0.000646   0.005955
    18  N   -0.032679   0.262232   0.005287  -0.000071   0.000057  -0.000330
    19  C    0.004817  -0.030824   0.000119  -0.000002  -0.000002   0.000032
    20  C   -0.000730   0.004735  -0.000123   0.000003   0.000000  -0.000002
    21  C    0.000027   0.000084   0.001367  -0.000069   0.000003  -0.000002
    22  C   -0.000405   0.005599  -0.016457   0.001496  -0.000093   0.000089
    23  C   -0.044005  -0.015503   0.443012  -0.003844  -0.057781  -0.036373
    24  N    0.265263  -0.031385  -0.057828  -0.034196  -0.026691   0.366957
    25  C    4.588119   0.414511   0.005572  -0.000095   0.004044  -0.029191
    26  C    0.414511   4.622806  -0.000727   0.000029  -0.000468   0.002949
    27  C    0.005572  -0.000727   5.015514   0.366929   0.035633  -0.076971
    28  C   -0.000095   0.000029   0.366929   4.824258   0.367655   0.009071
    29  C    0.004044  -0.000468   0.035633   0.367655   4.890746   0.432027
    30  C   -0.029191   0.002949  -0.076971   0.009071   0.432027   4.815325
    31  H    0.000791  -0.003784   0.000004   0.000000   0.000000   0.000000
    32  H    0.000000  -0.000080  -0.000001   0.000000   0.000000   0.000000
    33  H    0.000000   0.000023   0.000040   0.000000   0.000000   0.000000
    34  H    0.000006  -0.000101   0.005898   0.001214  -0.000089   0.000025
    35  H    0.385674  -0.006769  -0.000168  -0.000124   0.001861  -0.004455
    36  H    0.404120  -0.021721  -0.000231   0.000267  -0.000535  -0.000369
    37  H   -0.010900   0.387649   0.000032   0.000000   0.000010  -0.000126
    38  H   -0.019038   0.368138  -0.000115   0.000044  -0.000218   0.000945
    39  H   -0.000085  -0.000004   0.404083  -0.037618   0.009991  -0.000297
    40  H    0.000031   0.000000  -0.040871   0.426911  -0.045405   0.008584
    41  H   -0.000090   0.000005   0.009055  -0.041063   0.437580  -0.039304
    42  H   -0.004571   0.000472   0.000389   0.006445  -0.022006   0.414882
    43  N   -0.000001   0.000017   0.000000   0.000000   0.000000   0.000000
    44  N    0.000043   0.000771  -0.000001   0.000000   0.000000   0.000000
    45  N    0.000362  -0.012042   0.000006  -0.000001   0.000002  -0.000004
    46  N    0.000761  -0.000926   0.000012   0.000266  -0.000997   0.001579
    47  N   -0.000037   0.000006  -0.000311  -0.003936  -0.000999  -0.001484
    48  N    0.000000   0.000000  -0.005188  -0.001604  -0.000462   0.000039
    49  N    0.000000   0.000000  -0.002307  -0.000020  -0.000001  -0.000001
    50  N    0.000000   0.000000  -0.000047  -0.000002   0.000000   0.000000
              31         32         33         34         35         36
     1  C    0.000001   0.000003  -0.000007  -0.002996  -0.000001   0.000001
     2  C   -0.000001   0.000000   0.000006  -0.000403   0.000010  -0.000002
     3  C    0.000001   0.000000   0.000000  -0.000059   0.000104  -0.000002
     4  C    0.000019   0.000000   0.000000  -0.000016  -0.000339   0.000031
     5  C   -0.000049   0.000005  -0.000002  -0.000011  -0.000292  -0.000003
     6  C   -0.001174   0.000079  -0.000004   0.000186   0.000029  -0.000007
     7  C   -0.000019  -0.000095  -0.000025   0.001476   0.000000  -0.000001
     8  C    0.000031  -0.000031  -0.000045  -0.001535   0.000000  -0.000001
     9  P    0.000000   0.000000   0.000000   0.000000  -0.000197  -0.000021
    10  P    0.000000   0.000000   0.000000   0.000008  -0.000003   0.000001
    11  P    0.000000   0.000000  -0.000002  -0.001137   0.000000   0.000000
    12  P    0.000000  -0.000005   0.000764   0.011315   0.000000   0.000000
    13  P   -0.000073   0.000627   0.001828  -0.001244   0.000000   0.000000
    14  P    0.001812   0.002150  -0.000111  -0.000014   0.000000   0.000001
    15  P    0.002699  -0.000023   0.000000   0.000000  -0.000162  -0.000024
    16  P   -0.000019   0.000000   0.000000   0.000000   0.003798   0.000072
    17  C    0.003583  -0.000329   0.011692  -0.024340   0.000574   0.002912
    18  N   -0.036728   0.003707   0.000028   0.003973   0.003556  -0.003479
    19  C    0.417491  -0.042390   0.008940  -0.000262  -0.000126   0.000417
    20  C   -0.026021   0.441783  -0.049309   0.009552   0.000012  -0.000161
    21  C    0.007088  -0.043227   0.434369  -0.038536  -0.000001   0.000039
    22  C    0.000164   0.009380  -0.042677   0.425136   0.000023  -0.000282
    23  C   -0.000272   0.000017  -0.000302  -0.028811   0.003011  -0.003189
    24  N   -0.000013   0.000000   0.000000  -0.000063  -0.014562  -0.027526
    25  C    0.000791   0.000000   0.000000   0.000006   0.385674   0.404120
    26  C   -0.003784  -0.000080   0.000023  -0.000101  -0.006769  -0.021721
    27  C    0.000004  -0.000001   0.000040   0.005898  -0.000168  -0.000231
    28  C    0.000000   0.000000   0.000000   0.001214  -0.000124   0.000267
    29  C    0.000000   0.000000   0.000000  -0.000089   0.001861  -0.000535
    30  C    0.000000   0.000000   0.000000   0.000025  -0.004455  -0.000369
    31  H    0.526721  -0.007623  -0.000126   0.000018  -0.000037  -0.000001
    32  H   -0.007623   0.533111  -0.007356  -0.000137   0.000000   0.000001
    33  H   -0.000126  -0.007356   0.544207  -0.007774   0.000000   0.000000
    34  H    0.000018  -0.000137  -0.007774   0.573867   0.000000   0.000003
    35  H   -0.000037   0.000000   0.000000   0.000000   0.529358  -0.012561
    36  H   -0.000001   0.000001   0.000000   0.000003  -0.012561   0.531108
    37  H    0.001948  -0.000008   0.000000   0.000004  -0.002404  -0.005115
    38  H   -0.000621   0.000008   0.000000   0.000004  -0.006323   0.006205
    39  H    0.000000   0.000000  -0.000006  -0.003565   0.000005  -0.000005
    40  H    0.000000   0.000000   0.000000  -0.000018   0.000000  -0.000001
    41  H    0.000000   0.000000   0.000000   0.000000  -0.000009   0.000005
    42  H    0.000000   0.000000   0.000000   0.000000   0.002146  -0.000159
    43  N   -0.000070  -0.000525  -0.000481   0.000096   0.000000   0.000000
    44  N    0.000503  -0.000065   0.000001  -0.000003   0.000002   0.000000
    45  N   -0.000032   0.000000   0.000000   0.000000   0.000057  -0.000013
    46  N    0.000000   0.000000   0.000000   0.000000  -0.000009   0.000001
    47  N    0.000000   0.000000   0.000000  -0.000002   0.000001   0.000001
    48  N    0.000000   0.000000   0.000000   0.000029   0.000000   0.000000
    49  N    0.000000   0.000000  -0.000012   0.000409   0.000000   0.000000
    50  N    0.000000  -0.000011  -0.000244  -0.000264   0.000000   0.000000
              37         38         39         40         41         42
     1  C    0.000000  -0.000007  -0.008592  -0.000091   0.000002   0.000000
     2  C    0.000000   0.000134  -0.003214  -0.000697  -0.000023   0.000005
     3  C   -0.000003   0.001675   0.002333   0.000395  -0.000023  -0.000138
     4  C    0.000087  -0.005311   0.000333   0.000005   0.000023  -0.000145
     5  C   -0.000218  -0.026122   0.000018  -0.000001   0.000002   0.000037
     6  C    0.000039  -0.009437  -0.000067   0.000000   0.000000   0.000002
     7  C    0.000040   0.001127  -0.000020   0.000000   0.000000   0.000000
     8  C    0.000000   0.000074  -0.002696   0.000012   0.000000   0.000000
     9  P   -0.000004  -0.000150  -0.000030  -0.000059   0.000804   0.002379
    10  P    0.000000  -0.000004  -0.002169  -0.002082   0.000861  -0.000066
    11  P    0.000000   0.000000   0.022600   0.003785  -0.000007   0.000000
    12  P    0.000000   0.000000  -0.001240  -0.000012   0.000000   0.000000
    13  P    0.000002  -0.000017   0.000001   0.000000   0.000000   0.000000
    14  P   -0.000266   0.000568   0.000000   0.000000   0.000000   0.000000
    15  P    0.001985  -0.001356   0.000000   0.000000   0.000000   0.000000
    16  P   -0.000172   0.023385   0.000001   0.000000  -0.000004  -0.000121
    17  C    0.002505  -0.004616  -0.030919  -0.000262   0.000015  -0.000264
    18  N   -0.015425  -0.025202  -0.000060   0.000000   0.000000  -0.000009
    19  C   -0.004580  -0.001458   0.000018   0.000000   0.000000   0.000000
    20  C    0.001976  -0.000309  -0.000059   0.000000   0.000000   0.000000
    21  C   -0.000100   0.000102   0.000996  -0.000001   0.000000   0.000000
    22  C   -0.000104  -0.000504   0.007458   0.000034  -0.000001   0.000002
    23  C    0.000699   0.002599  -0.015011   0.011781  -0.000245   0.003647
    24  N    0.003433  -0.004396   0.004132   0.000054   0.003570  -0.035226
    25  C   -0.010900  -0.019038  -0.000085   0.000031  -0.000090  -0.004571
    26  C    0.387649   0.368138  -0.000004   0.000000   0.000005   0.000472
    27  C    0.000032  -0.000115   0.404083  -0.040871   0.009055   0.000389
    28  C    0.000000   0.000044  -0.037618   0.426911  -0.041063   0.006445
    29  C    0.000010  -0.000218   0.009991  -0.045405   0.437580  -0.022006
    30  C   -0.000126   0.000945  -0.000297   0.008584  -0.039304   0.414882
    31  H    0.001948  -0.000621   0.000000   0.000000   0.000000   0.000000
    32  H   -0.000008   0.000008   0.000000   0.000000   0.000000   0.000000
    33  H    0.000000   0.000000  -0.000006   0.000000   0.000000   0.000000
    34  H    0.000004   0.000004  -0.003565  -0.000018   0.000000   0.000000
    35  H   -0.002404  -0.006323   0.000005   0.000000  -0.000009   0.002146
    36  H   -0.005115   0.006205  -0.000005  -0.000001   0.000005  -0.000159
    37  H    0.527778  -0.008195   0.000000   0.000000   0.000000  -0.000027
    38  H   -0.008195   0.578840   0.000003   0.000000   0.000000   0.000009
    39  H    0.000000   0.000003   0.596711  -0.007661  -0.000151   0.000018
    40  H    0.000000   0.000000  -0.007661   0.548112  -0.007254  -0.000128
    41  H    0.000000   0.000000  -0.000151  -0.007254   0.532216  -0.007324
    42  H   -0.000027   0.000009   0.000018  -0.000128  -0.007324   0.524969
    43  N    0.000002   0.000013  -0.000001   0.000000   0.000000   0.000000
    44  N   -0.000101  -0.001168   0.000000   0.000000   0.000000   0.000000
    45  N   -0.000086   0.016927   0.000000   0.000000   0.000000  -0.000002
    46  N    0.000020  -0.000188  -0.000010   0.000000  -0.000020   0.000038
    47  N    0.000000   0.000026   0.000315  -0.000609  -0.000376  -0.000028
    48  N    0.000000   0.000000  -0.002036  -0.000100  -0.000013   0.000001
    49  N    0.000000   0.000000   0.004900  -0.000052   0.000000   0.000000
    50  N    0.000000  -0.000001   0.000021   0.000000   0.000000   0.000000
              43         44         45         46         47         48
     1  C    0.012925  -0.000384   0.000199  -0.000427   0.012744  -0.071850
     2  C   -0.000566   0.000158  -0.000474   0.012002  -0.082580   0.319426
     3  C    0.000210  -0.000323   0.013563  -0.077837   0.340553  -0.072725
     4  C   -0.000559   0.012542  -0.077113   0.340629  -0.079024   0.012960
     5  C    0.012983  -0.079623   0.315004  -0.081868   0.013095  -0.000391
     6  C   -0.083510   0.335569  -0.077886   0.012389  -0.000581   0.000171
     7  C    0.342588  -0.077345   0.013616  -0.000377   0.000208  -0.000335
     8  C   -0.081123   0.012069  -0.000449   0.000166  -0.000535   0.013671
     9  P    0.000000   0.000001   0.001113   0.221745   0.218318   0.001365
    10  P    0.000000   0.000000   0.000002   0.001289   0.215391   0.213222
    11  P    0.000002   0.000000   0.000000   0.000001   0.001268   0.211017
    12  P    0.001221   0.000001   0.000000   0.000000   0.000001   0.001276
    13  P    0.215986   0.001316   0.000002   0.000000   0.000000   0.000001
    14  P    0.217885   0.217072   0.001124   0.000001   0.000000   0.000000
    15  P    0.001266   0.203198   0.215804   0.001300   0.000002   0.000000
    16  P    0.000001   0.001405   0.210158   0.204182   0.001225   0.000001
    17  C   -0.000102  -0.000012   0.000002  -0.000079  -0.000064   0.000112
    18  N   -0.000155  -0.000715   0.000032   0.000022   0.000001   0.000000
    19  C   -0.002397   0.002286   0.000053   0.000001   0.000000   0.000000
    20  C   -0.003469  -0.001876   0.000005   0.000000   0.000000   0.000000
    21  C   -0.003198   0.000182  -0.000001   0.000000   0.000000  -0.000001
    22  C   -0.000394   0.000078   0.000002  -0.000002  -0.000002   0.000006
    23  C   -0.000015  -0.000036   0.000011   0.000170  -0.000252  -0.000152
    24  N    0.000000   0.000002  -0.000082  -0.000629  -0.000151  -0.000008
    25  C   -0.000001   0.000043   0.000362   0.000761  -0.000037   0.000000
    26  C    0.000017   0.000771  -0.012042  -0.000926   0.000006   0.000000
    27  C    0.000000  -0.000001   0.000006   0.000012  -0.000311  -0.005188
    28  C    0.000000   0.000000  -0.000001   0.000266  -0.003936  -0.001604
    29  C    0.000000   0.000000   0.000002  -0.000997  -0.000999  -0.000462
    30  C    0.000000   0.000000  -0.000004   0.001579  -0.001484   0.000039
    31  H   -0.000070   0.000503  -0.000032   0.000000   0.000000   0.000000
    32  H   -0.000525  -0.000065   0.000000   0.000000   0.000000   0.000000
    33  H   -0.000481   0.000001   0.000000   0.000000   0.000000   0.000000
    34  H    0.000096  -0.000003   0.000000   0.000000  -0.000002   0.000029
    35  H    0.000000   0.000002   0.000057  -0.000009   0.000001   0.000000
    36  H    0.000000   0.000000  -0.000013   0.000001   0.000001   0.000000
    37  H    0.000002  -0.000101  -0.000086   0.000020   0.000000   0.000000
    38  H    0.000013  -0.001168   0.016927  -0.000188   0.000026   0.000000
    39  H   -0.000001   0.000000   0.000000  -0.000010   0.000315  -0.002036
    40  H    0.000000   0.000000   0.000000   0.000000  -0.000609  -0.000100
    41  H    0.000000   0.000000   0.000000  -0.000020  -0.000376  -0.000013
    42  H    0.000000   0.000000  -0.000002   0.000038  -0.000028   0.000001
    43  N    6.978406  -0.028230   0.000012   0.000000   0.000000   0.000000
    44  N   -0.028230   6.980692  -0.027590  -0.000001   0.000000   0.000000
    45  N    0.000012  -0.027590   6.987912  -0.027324   0.000013   0.000000
    46  N    0.000000  -0.000001  -0.027324   6.969892  -0.029443   0.000004
    47  N    0.000000   0.000000   0.000013  -0.029443   6.979626  -0.027366
    48  N    0.000000   0.000000   0.000000   0.000004  -0.027366   6.997052
    49  N    0.000018   0.000000   0.000000   0.000000   0.000018  -0.027057
    50  N   -0.028034   0.000004   0.000000   0.000000   0.000000  -0.000005
              49         50
     1  C    0.349280  -0.074355
     2  C   -0.086234   0.012943
     3  C    0.012832  -0.000404
     4  C   -0.000475   0.000171
     5  C    0.000197  -0.000431
     6  C   -0.000500   0.012695
     7  C    0.012746  -0.075028
     8  C   -0.082727   0.327651
     9  P    0.000001   0.000000
    10  P    0.001296   0.000001
    11  P    0.216953   0.001227
    12  P    0.217762   0.212914
    13  P    0.001288   0.216143
    14  P    0.000002   0.001315
    15  P    0.000000   0.000001
    16  P    0.000000   0.000000
    17  C   -0.000212  -0.000943
    18  N    0.000001  -0.000007
    19  C   -0.000001   0.000042
    20  C    0.000002  -0.000256
    21  C   -0.000052  -0.001008
    22  C   -0.000186  -0.000991
    23  C   -0.000157   0.000149
    24  N    0.000000   0.000000
    25  C    0.000000   0.000000
    26  C    0.000000   0.000000
    27  C   -0.002307  -0.000047
    28  C   -0.000020  -0.000002
    29  C   -0.000001   0.000000
    30  C   -0.000001   0.000000
    31  H    0.000000   0.000000
    32  H    0.000000  -0.000011
    33  H   -0.000012  -0.000244
    34  H    0.000409  -0.000264
    35  H    0.000000   0.000000
    36  H    0.000000   0.000000
    37  H    0.000000   0.000000
    38  H    0.000000  -0.000001
    39  H    0.004900   0.000021
    40  H   -0.000052   0.000000
    41  H    0.000000   0.000000
    42  H    0.000000   0.000000
    43  N    0.000018  -0.028034
    44  N    0.000000   0.000004
    45  N    0.000000   0.000000
[...]
 00000522,0.00000972,-0.00003136,-0.00002233,-0.00001742,0.00009063,0.0
 0006221,-0.00005207,0.00003533,-0.00012245,-0.00001257,-0.00004727,0.0
 0001809,-0.00009434,0.00009933,0.00002389,0.00005185,-0.00000196,-0.00
 000482,0.00000357,-0.00015903,-0.00007334,-0.00026072,0.00043014,-0.00
 033955,-0.00062118,0.00086088,0.00008759,0.00046003,-0.00011962,-0.000
 24366,-0.00018153,0.00030642,-0.00074933,-0.00085377,0.00006917,-0.000
 91741,0.00346494,-0.00021143,0.00040198,-0.00441314,0.00047803,-0.0062
 4411,-0.02668785,0.00078888,-0.01390351,0.42593591,0.00121998,-0.00006
 927,0.00331752,-0.00981167,0.01040360,0.00151235,-0.05361006,0.0096767
 0,-0.07399522,-0.01436149,-0.00856836,0.00217519,0.00141256,-0.0000205
 1,0.00344555,-0.00021722,-0.00000943,-0.00173845,-0.00048861,0.0000729
 0,0.00064970,-0.00019577,0.00023806,-0.00175391,-0.00488993,0.01799267
 ,-0.03103691,-0.01232313,-0.01526427,-0.03021570,0.00081762,-0.0025730
 0,-0.00146090,-0.00059806,0.00025237,-0.00011703,-0.00007650,0.0002732
 7,-0.00001641,0.00002264,-0.00039076,0.00002684,-0.00088373,-0.0001798
 2,-0.00018916,0.00174137,0.00302003,-0.00154393,0.00049524,-0.00000112
 ,0.00005324,0.00000185,-0.00015108,0.00000504,-0.00014954,0.00006394,0
 .00000352,-0.00006028,-0.00018079,-0.00002611,0.00019189,0.00011306,0.
 00001484,-0.00026521,0.00008720,-0.00009693,-0.00071326,0.00105690,0.0
 0055259,-0.00080692,-0.00074223,0.00031997,0.00011943,0.00023473,0.000
 08071,-0.00005012,0.00006715,0.00000500,-0.00164290,-0.00060275,-0.000
 46187,0.00210562,-0.00043816,-0.00435581,0.00112863,-0.00128531,-0.001
 93894,0.00019038,-0.00047360,-0.00124047,-0.00000248,-0.00000230,-0.00
 000104,0.00000089,-0.00000239,0.00000688,0.00000511,0.00000189,-0.0000
 0453,-0.00002061,0.00001379,0.00000291,-0.00001889,0.00000152,0.000046
 32,-0.00007884,-0.00007635,0.00001276,-0.00002281,-0.00001022,-0.00002
 213,-0.00008194,0.00003500,0.00002840,-0.00000892,-0.00004056,-0.00007
 952,-0.00013221,0.00020680,0.00057179,-0.00005253,0.00002208,0.0000005
 1,0.00002773,0.00006612,0.00009882,0.00104462,-0.00000182,-0.00007224,
 -0.00030155,-0.00055157,0.00035835,-0.00127910,0.00100530,0.00257062,-
 0.00323123,-0.00395323,0.00303484,0.09799429,-0.01261276,0.12616634,-0
 .06068044,-0.00832711,-0.00992816,-0.23793805,-0.08265871,-0.03996337,
 0.00380857,-0.04760925,0.00141806,0.00514144,0.00798171,-0.00031976,-0
 .00263888,-0.00116739,-0.00021246,-0.00092949,-0.00067401,-0.00007307,
 -0.00090167,-0.00040650,0.00024655,0.00127555,0.00697847,-0.00052922,-
 0.00468272,0.00984709,-0.00289577,-0.10475465,0.06357979,-0.01824160,-
 0.04512835,-0.01571966,-0.00452861,0.00278919,-0.00616124,0.00010875,-
 0.00263057,0.00055753,-0.00020931,-0.00001218,0.00117751,-0.00001619,0
 .00082236,-0.00094532,0.00012805,-0.00238152,-0.00386025,-0.00002813,-
 0.00118221,0.00007967,0.00010001,0.00002918,0.00049593,-0.00006933,0.0
 0027624,-0.00023621,-0.00003049,0.00009768,0.00069060,0.00000976,-0.00
 042274,-0.00025897,0.00004545,0.00024097,-0.00021811,0.00019005,0.0024
 6581,0.00239725,-0.00072216,-0.00126313,-0.00252535,0.00043062,0.00025
 522,0.00056002,0.00009537,0.00017380,-0.00033238,0.00013766,-0.0036845
 5,-0.00287663,0.00245599,0.00268406,0.00444005,-0.00431514,-0.00091518
 ,-0.00494788,0.00130829,0.00099106,0.00384424,0.00081478,0.00001388,-0
 .00000100,-0.00000020,0.00000635,0.00002989,-0.00003646,-0.00003693,-0
 .00006771,-0.00007423,-0.00002244,-0.00007953,0.00004814,-0.00009366,-
 0.00012060,-0.00008939,-0.00010399,-0.00016944,0.00000706,-0.00002481,
 0.00002778,-0.00006719,0.00004826,-0.00005331,-0.00000227,-0.00015003,
 -0.00001172,-0.00033760,-0.00061187,-0.00089336,0.00120094,-0.00009059
 ,0.00021584,-0.00018904,-0.00002605,-0.00013636,0.00000512,-0.00059528
 ,-0.00130486,-0.00013978,0.00190028,0.00218155,0.00011025,0.00126944,-
 0.00116614,0.00020807,-0.00062543,0.00216907,-0.00095012,-0.00625588,-
 0.00024038,-0.00052128,0.48348334,-0.02637094,0.02201970,-0.00543239,-
 0.08476518,-0.19165385,-0.01853379,-0.02938544,-0.04480095,-0.00576442
 ,0.00560957,-0.00397728,0.00076950,0.00047486,-0.00024883,0.00016552,-
 0.00072623,-0.00025707,-0.00007298,-0.00090473,-0.00184395,-0.00005808
 ,0.00722948,0.00103940,0.00151215,-0.00261918,0.00205799,-0.00065714,0
 .00341361,-0.06330606,0.00025866,0.04561908,-0.11677650,0.00348944,0.0
 1198278,-0.00573933,0.00059046,-0.00171786,-0.00259637,0.00029414,-0.0
 0143976,0.00018439,0.00026726,0.00019084,0.00019688,0.00004947,0.00054
 909,-0.00025817,0.00011059,-0.00011659,0.00091285,0.00003608,0.0001039
 4,-0.00100440,0.00021293,-0.00041466,0.00005978,-0.00025355,-0.0000345
 5,-0.00020106,0.00007558,-0.00088898,0.00035328,-0.00050163,0.00087687
 ,-0.00050806,-0.00011743,-0.00060562,-0.00150110,0.00050327,0.00094871
 ,0.00143122,-0.00026480,-0.00035071,-0.00064143,-0.00008815,-0.0001644
 1,0.00035024,-0.00013104,0.00122285,0.00083221,0.00011931,-0.00214293,
 -0.00183071,0.00262937,0.00047988,0.00190063,-0.00076678,-0.00103635,-
 0.00126908,-0.00020409,-0.00003168,0.00002043,0.00002814,-0.00000027,-
 0.00001515,-0.00000004,-0.00006060,-0.00009624,0.00016541,0.00022666,-
 0.00006834,0.00000800,0.00004074,0.00004065,0.00002302,0.00010940,0.00
 015177,-0.00002275,0.00005678,-0.00004488,0.00003723,-0.00002120,-0.00
 010862,-0.00001238,0.00116149,0.00091010,-0.00076325,-0.00013100,0.000
 77403,-0.00084868,0.00003988,-0.00014129,0.00027621,-0.00001348,-0.000
 01480,-0.00000529,-0.00178123,0.00418718,0.00006496,0.00266246,-0.0000
 8544,0.00010345,-0.00082396,-0.00017603,-0.00002308,-0.00331910,-0.002
 33905,-0.00052051,0.01554688,-0.03282044,0.00381454,0.05750084,0.45466
 562,-0.01463585,-0.00212682,0.00120669,-0.03784691,-0.01966373,-0.0683
 2574,-0.00106637,-0.01158162,0.00285147,0.00038425,0.00207514,0.003135
 35,0.00007432,0.00005505,-0.00153592,-0.00024112,0.00007763,0.00084411
 ,0.00006390,-0.00021028,-0.00196461,0.00055459,0.00134068,0.00391171,-
 0.00070280,0.00317029,-0.00190031,-0.02079825,0.01337164,-0.03088763,-
 0.00201282,-0.00888047,-0.02943707,0.00177534,-0.00095302,-0.00157068,
 0.00005568,-0.00015078,0.00010920,0.00014973,-0.00002289,0.00010274,0.
 00017245,-0.00048404,0.00002677,-0.00075119,-0.00062041,-0.00015009,0.
 00119997,-0.00005777,0.00012484,0.00004141,-0.00050556,0.00003459,-0.0
 0042885,0.00031984,-0.00000331,-0.00010114,-0.00077683,0.00002847,0.00
 035105,0.00043742,-0.00017588,-0.00043396,0.00016048,-0.00013059,-0.00
 147677,0.00071534,-0.00059314,-0.00113411,-0.00115404,0.00012290,0.000
 22398,0.00034584,0.00022298,-0.00011650,0.00013532,-0.00003920,0.00026
 126,0.00052242,-0.00308086,0.00177973,0.00413509,-0.00597007,-0.000101
 79,-0.00417961,0.00054637,0.00190991,0.00171138,0.00029166,-0.00001041
 ,0.00000870,0.00001747,0.00000746,-0.00000567,0.00001571,0.00000358,-0
 .00000845,0.00006916,-0.00003637,-0.00003197,0.00005561,-0.00000681,-0
 .00001823,0.00001221,-0.00011702,-0.00010088,0.00001731,-0.00001546,-0
 .00000241,-0.00000373,0.00000341,-0.00003582,0.00006434,0.00007146,0.0
 0053210,-0.00014248,-0.00028361,0.00042200,0.00066612,-0.00000276,-0.0
 0011912,0.00020263,0.00003734,-0.00004128,0.00001063,-0.00028128,0.000
 21132,0.00034251,0.00015136,0.00086493,-0.00020695,0.00048428,-0.00079
 256,0.00052971,-0.00123347,0.00045867,0.00198451,-0.00048508,-0.000276
 45,0.00256228,0.07961105,0.01930319,0.12064971,-0.13111537,-0.02209280
 ,-0.01240533,0.02007136,0.01584755,0.00366803,-0.00453352,0.00428812,-
 0.00136320,-0.00108591,-0.00158141,0.00029982,0.00037663,-0.00020311,-
 0.00007234,-0.00050741,0.00113243,0.00002395,-0.00624289,-0.00058004,-
 0.00078388,0.00040030,-0.03167412,-0.00304390,-0.00047353,-0.00235879,
 -0.00027773,-0.00439325,0.00516861,-0.00207908,-0.11039415,0.01114175,
 -0.01014543,-0.09558022,0.00461920,-0.01047862,-0.00356178,-0.00408914
 ,0.00061616,-0.00063699,0.00136633,0.00006754,0.00054912,0.00055993,0.
 00017470,0.00075997,-0.00070918,0.00005613,-0.00042805,0.00062540,0.00
 004429,0.00034196,-0.00026979,0.00033926,-0.00046773,0.00042672,-0.000
 22116,-0.00007243,-0.00049960,0.00017911,-0.00096515,0.00052110,-0.001
 04102,0.00075693,-0.00073885,-0.00046867,0.00078438,-0.00090580,0.0004
 8257,0.00118636,0.00077979,-0.00010110,-0.00027287,-0.00055304,-0.0001
 0069,-0.00001187,0.00015247,-0.00000384,-0.00007200,-0.00016928,0.0003
 9119,-0.00138387,-0.00062943,0.00142791,0.00026088,0.00154130,-0.00083
 953,-0.00169057,-0.00070494,0.00011028,-0.00003151,0.00002386,-0.00000
 816,0.00001869,0.00003136,-0.00004786,-0.00028039,-0.00029586,0.000257
 65,0.00043687,-0.00059031,0.00067645,0.00000267,0.00002360,0.00002462,
 0.00009770,0.00010738,-0.00001982,0.00004173,-0.00000928,0.00004182,-0
 .00008280,-0.00002777,-0.00005251,0.00129066,0.00112894,-0.00070323,-0
 .00026513,0.00070458,-0.00064177,0.00001446,-0.00004545,0.00005491,-0.
 00005743,-0.00003039,0.00001167,-0.00333203,0.00087498,-0.00034983,0.0
 0209394,-0.00123720,-0.00005274,-0.00184851,0.00069823,-0.00029165,0.0
 0229102,0.00046614,0.00060847,-0.00397225,0.00023646,-0.00161902,-0.02
 776731,0.00367033,-0.00388543,0.40247771,-0.02209394,-0.29237424,-0.02
 346549,0.03509031,-0.05942258,0.00167305,0.00461411,0.00693316,-0.0002
 7871,-0.00082459,-0.00196342,0.00033762,-0.00007919,-0.00052886,-0.000
 14742,0.00016324,-0.00261580,0.00037922,-0.00027305,0.00867027,-0.0009
 2462,-0.05190731,-0.03868005,-0.00934854,0.00077809,-0.00274929,0.0005
 1749,-0.00838810,0.00277603,-0.00328004,-0.05062960,-0.05174770,-0.008
 89570,0.06492252,-0.06942500,0.00714723,0.01083043,0.00158467,-0.00034
 564,-0.00153270,-0.00288276,0.00008520,-0.00100068,0.00021607,-0.00027
 572,0.00087665,0.00004436,0.00013309,-0.00034687,-0.00082221,0.0000836
 4,-0.00109689,0.00093089,-0.00054408,0.00108000,-0.00103879,0.00018462
 ,-0.00004322,0.00157437,-0.00034748,0.00071293,-0.00114703,0.00115600,
 -0.00028054,0.00067340,0.00016020,0.00016750,-0.00098013,0.00035623,0.
 00120796,0.00082873,0.00001377,-0.00023747,-0.00034246,-0.00005913,0.0
 0021039,-0.00018683,0.00006371,0.00007204,-0.00010976,-0.00035602,-0.0
 0096607,-0.00056320,0.00088944,0.00041008,0.00137946,-0.00066971,-0.00
 133522,-0.00066724,-0.00008500,-0.00000731,-0.00002026,-0.00004582,-0.
 00002251,-0.00008251,0.00002764,0.00022579,0.00023489,-0.00027395,-0.0
 0008058,0.00072502,-0.00045616,-0.00002915,0.00001425,-0.00000164,0.00
 009293,0.00011119,0.00000163,0.00002869,-0.00002817,-0.00006878,0.0000
 0781,0.00019862,-0.00013377,0.00024781,0.00108241,-0.00020072,-0.00009
 989,0.00021094,-0.00024886,0.00000518,-0.00005638,0.00004149,0.0000007
 3,-0.00001677,-0.00000403,0.00432120,-0.00490378,-0.00014702,-0.001866
 96,0.00005077,0.00003421,0.00062389,0.00229569,0.00001216,0.00104432,-
 0.00054887,0.00037169,-0.00388821,-0.00316875,-0.00105877,0.01958078,-
 0.01086254,0.00392190,0.01287345,0.52241411,-0.01170405,-0.02336145,-0
 .06507253,0.00472736,-0.00234794,0.00373305,-0.00103794,0.00112900,0.0
 0291516,0.00024951,-0.00034441,-0.00140306,-0.00007707,-0.00015080,0.0
 0040103,0.00000390,0.00000498,-0.00165437,-0.00120703,0.00046280,0.003
 02814,-0.00488970,-0.00803330,0.00235724,-0.00017786,-0.00054424,-0.00
 004288,-0.00080791,0.00142622,-0.00212906,-0.01755292,-0.00145139,-0.0
 3199787,-0.00331010,-0.00343606,-0.03054330,0.00058182,-0.00001265,-0.
 00148640,-0.00013689,-0.00013289,0.00005365,-0.00000783,0.00006639,-0.
 00003445,0.00019063,-0.00020875,0.00001188,-0.00042740,-0.00005962,-0.
 00014563,0.00029398,0.00025440,0.00005086,-0.00025840,-0.00006614,-0.0
 0014812,0.00005545,0.00012943,-0.00002529,-0.00030159,0.00009732,-0.00
 011700,0.00025066,-0.00019639,-0.00017222,0.00025247,-0.00035443,0.000
 03814,0.00000004,0.00057066,-0.00012885,-0.00015326,-0.00013376,0.0000
 4228,0.00005295,-0.00002620,0.00003867,-0.00009259,-0.00024540,-0.0001
 0215,-0.00003679,0.00017694,0.00019881,0.00003979,0.00035502,-0.000304
 21,-0.00004670,-0.00024797,-0.00003747,-0.00000998,0.00001115,0.000021
 35,-0.00000346,-0.00000056,-0.00002661,-0.00010634,-0.00016098,0.00015
 489,-0.00006409,-0.00000897,0.00042105,0.00000801,0.00001700,-0.000007
 04,0.00003318,0.00001058,0.00000910,0.00000996,-0.00000502,0.00000370,
 -0.00001411,0.00001305,-0.00004791,0.00019202,0.00057635,0.00000258,-0
 .00006399,-0.00012644,0.00023334,0.00001135,-0.00000855,-0.00001595,-0
 .00000497,0.00001584,0.00003122,0.00009831,-0.00097755,0.00282352,-0.0
 0014024,-0.00018148,0.00037532,-0.00019287,0.00045625,-0.00017053,0.00
 064453,-0.00002943,0.00059369,-0.00204634,-0.00059824,0.00232610,-0.00
 364824,0.00139686,0.00297287,0.04634554,0.03554676,0.11034705,-0.04528
 257,0.02947073,-0.00518762,-0.00284625,-0.00588941,-0.00036542,-0.0007
 3803,0.00004028,0.00011394,-0.00026435,0.00077346,-0.00027499,-0.00238
 628,0.00191744,0.00011628,0.00059994,-0.00992614,-0.00049901,0.0224122
 1,0.02927927,0.00236163,-0.19149173,0.08344213,-0.00473857,0.00025786,
 -0.00094094,0.00016663,-0.00201285,-0.00057237,-0.00024688,0.00052177,
 0.00393838,0.00032404,-0.05982228,-0.00039161,-0.00233909,-0.12344557,
 -0.04561594,-0.01186088,-0.00650925,-0.00750240,0.00137136,-0.00122000
 ,0.00402566,-0.00080241,0.00094303,0.00097309,0.00029958,0.00197258,-0
 .00224657,0.00047430,0.00005365,0.00165441,-0.00106975,-0.00099099,-0.
 00296821,-0.00114893,0.00021833,0.00376432,-0.00003242,0.00097633,-0.0
 0481657,0.00467557,-0.00270528,0.00285000,-0.00151973,-0.00143501,0.00
 032049,-0.00034452,-0.00015116,-0.00072952,0.00022107,0.00037451,0.000
 37724,0.00011932,0.00001690,0.00011115,0.00010010,0.00055239,0.0002917
 9,-0.00014897,-0.00044038,0.00026011,-0.00024028,-0.00004391,-0.000746
 53,0.00020939,0.00041450,0.00024480,0.00001113,-0.00008093,0.00019327,
 0.00009234,-0.00011916,-0.00028268,0.00002866,-0.00004438,0.00093718,-
 0.00084852,-0.00012459,0.00014636,-0.00019760,-0.00001192,-0.00002381,
 0.00000603,-0.00007403,-0.00006777,-0.00001473,-0.00015752,0.00000395,
 -0.00006170,0.00033230,0.00028710,-0.00001000,-0.00015075,0.00007593,0
 .00000272,-0.00002743,0.00002893,0.00004339,-0.00001210,-0.00003162,0.
 00001791,0.00001657,0.00000337,-0.00000120,-0.01314188,-0.00608520,-0.
 00252290,-0.00087674,-0.00258097,0.00028187,0.00157092,0.00050801,0.00
 021649,-0.00000802,-0.00244437,0.00008420,0.00074419,0.00209227,-0.000
 00403,-0.00122207,0.00014967,-0.00116137,-0.03272644,-0.01315876,-0.00
 552077,0.45858585,0.04799379,0.00394442,0.00462019,-0.00684945,0.00532
 195,-0.00046948,0.00061332,-0.00215338,0.00010506,0.00072127,-0.000786
 79,0.00022753,0.00038474,-0.00081673,0.00001766,-0.00687675,0.00100238
 ,-0.00137519,0.00952340,-0.06223250,-0.00234812,0.08545782,-0.24220037
 ,-0.00434533,0.00132227,0.00050877,0.00076573,0.00153354,-0.00256355,0
 .00095681,-0.01298729,-0.00307193,-0.00283675,-0.06149169,-0.10364543,
 -0.01171217,0.01561022,-0.04859923,-0.00084073,0.00516747,0.00288265,-
 0.00013464,-0.00036575,-0.00149209,0.00011303,-0.00046524,0.00011965,-
 0.00010534,-0.00035699,-0.00063964,0.00007249,-0.00065940,0.00047833,-
 0.00025974,0.00099886,-0.00022074,0.00028795,-0.00003581,0.00069017,-0
 .00012203,-0.00008642,-0.00091817,0.00071883,0.00035132,0.00037340,0.0
 0037751,0.00080997,0.00063566,0.00010572,-0.00062115,-0.00052347,-0.00
 009043,0.00013804,0.00025878,0.00005743,0.00018213,-0.00038785,0.00012
 673,-0.00095440,-0.00027492,-0.00012101,0.00112424,-0.00010776,-0.0000
 0441,-0.00001515,0.00022501,0.00002222,0.00047974,-0.00028649,-0.00022
 184,0.00002501,-0.00007133,-0.00004111,-0.00005229,-0.00008358,0.00012
 067,0.00028583,0.00036449,-0.00005609,-0.00021479,0.00072925,-0.000836
 19,-0.00004387,-0.00002798,-0.00001996,-0.00002873,-0.00006277,0.00003
 773,-0.00001508,0.00000169,-0.00005447,-0.00009243,0.00002144,-0.00005
 600,-0.00027345,0.00000421,-0.00003664,0.00003214,-0.00017816,0.000218
 64,0.00000492,0.00000638,0.00001029,0.00001228,0.00003796,0.00004241,-
 0.02175499,-0.02463995,-0.00277564,0.00252205,-0.00232154,0.00023365,0
 .00048274,-0.00052527,0.00012327,-0.00277318,0.00131908,-0.00083804,0.
 00255723,0.00231311,0.00054082,-0.00116623,-0.00690129,-0.00149563,0.0
 0098558,-0.00501392,0.00073399,-0.06113939,0.48950805,-0.00090496,0.00
 205400,0.00390514,-0.00169816,-0.00013619,0.00357284,0.00023337,-0.000
 24518,-0.00181055,-0.00003350,0.00011697,0.00059317,-0.00014252,0.0004
 6893,-0.00141299,-0.00060263,-0.00068742,0.00321403,0.00295128,-0.0023
 4111,0.00338609,-0.00749808,-0.00391759,-0.06208992,-0.00000815,-0.000
 17644,0.00006892,-0.00055986,-0.00027020,0.00008965,-0.00096543,0.0006
 5350,-0.00192299,-0.00796472,-0.00696568,-0.03018267,-0.00511909,-0.00
 623339,-0.02831868,0.00026619,0.00063024,-0.00104431,0.00016162,0.0003
 2346,-0.00007617,0.00001664,-0.00011981,0.00004709,0.00191780,-0.00033
 599,0.00024655,0.00021561,-0.00049572,-0.00003161,-0.00087704,0.000598
 49,-0.00009658,-0.00061667,-0.00189707,-0.00038672,0.00090171,0.002410
 69,-0.00307464,0.00028394,0.00152615,-0.00266521,-0.00124679,0.0002730
 4,-0.00012384,-0.00024343,-0.00062467,0.00008221,0.00024376,0.00023839
 ,0.00006959,-0.00010493,0.00015000,0.00001760,0.00041659,0.00014015,0.
 00008648,-0.00016358,0.00037851,-0.00038356,-0.00012033,-0.00080128,0.
 00025196,0.00057219,0.00024883,-0.00000614,-0.00003961,-0.00000148,-0.
 00000227,-0.00008603,-0.00020057,0.00026282,0.00006983,0.00033150,0.00
 049901,-0.00001116,0.00020188,0.00015298,0.00000342,-0.00001067,0.0000
 0680,-0.00005610,-0.00004081,-0.00001066,-0.00003766,-0.00002560,-0.00
 000941,0.00013040,0.00000068,0.00002199,-0.00003041,-0.00003966,-0.000
 01511,-0.00001900,0.00000690,0.00004668,-0.00001110,-0.00001196,0.0000
 0251,0.00001405,0.00000523,-0.00000296,-0.00400112,-0.00281088,0.00201
 196,0.00023565,-0.00056309,0.00232504,-0.00033108,-0.00033915,0.000398
 76,0.00004915,0.00013424,-0.00020822,0.00033159,0.00057689,0.00041823,
 -0.00054144,-0.00126253,0.00238562,-0.00480455,-0.00147518,0.00262819,
 0.02982435,0.02056065,0.10708330\\0.00000076,-0.00000990,0.00001104,-0
 .00001371,-0.00000286,-0.00000758,-0.00002274,-0.00000191,-0.00001625,
 0.00000587,0.00000390,0.00001823,-0.00000730,-0.00002166,-0.00001903,0
 .00001000,0.00000855,0.00001933,-0.00000425,0.00000764,0.00000230,-0.0
 0000057,0.00000109,-0.00000703,-0.00001842,0.00001021,-0.00000863,0.00
 000267,0.00000257,0.00000625,-0.00000771,-0.00000985,-0.00000792,-0.00
 000051,0.00000470,0.00000119,-0.00000413,-0.00000351,0.00000807,-0.000
 01021,-0.00000325,0.00000368,-0.00001116,0.00002097,-0.00001070,-0.000
 01689,-0.00001053,-0.00000279,0.00000918,-0.00001893,0.00000260,-0.000
 02316,-0.00000521,-0.00001529,0.00002636,-0.00000501,0.00001184,-0.000
 00546,0.00001843,-0.00001265,0.00002910,-0.00001150,0.00001320,-0.0000
 2507,0.00001673,-0.00000271,-0.00000503,-0.00000650,-0.00000473,0.0000
 1266,-0.00001287,0.00001886,0.00001761,0.00000247,-0.00000535,-0.00002
 324,-0.00001007,-0.00000586,0.00001484,0.00000481,-0.00000469,-0.00001
 834,0.00000776,-0.00000144,0.00001296,-0.00001830,-0.00001266,-0.00000
 948,0.00000612,-0.00000908,0.00000112,-0.00000135,-0.00000618,0.000000
 90,0.00000100,0.00000476,-0.00000338,0.00000089,-0.00000816,0.00000563
 ,-0.00000231,0.00000510,-0.00000494,-0.00000483,0.00000345,-0.00000655
 ,0.00000019,-0.00000443,-0.00000114,-0.00000168,0.00000064,0.00002703,
 0.00003637,0.00000093,-0.00000093,0.00000272,-0.00000030,0.00000214,0.
 00000057,-0.00000621,-0.00000017,0.00000027,-0.00000112,-0.00000182,-0
 .00000375,0.00000086,0.00000985,0.00001041,0.00000147,0.00001752,-0.00
 002701,-0.00000385,-0.00000886,0.00002745,0.00000038,0.00002588,0.0000
 1412,0.00000592,0.00000812,-0.00001503,0.00001377,-0.00000029,0.000001
 74,0.00001393,0.00001581,-0.00000095,0.00000977,-0.00000057,-0.0000029
 4,0.00000707\\\@


 I DON'T EXACTLY UNDERSTAND WHAT YOU ARE SAYING,
 BUT YOU ARE ABSOLUTELY RIGHT.
     M.S.GORDON, IN A NDSU FACULTY MEETING
 Job cpu time:       1 days 18 hours 59 minutes 24.5 seconds.
 File lengths (MBytes):  RWF=   2561 Int=      0 D2E=      0 Chk=     24 Scr=      1
 Normal termination of Gaussian 09 at Tue Jun 11 08:28:59 2019.
