 Entering Gaussian System, Link 0=g09
 Input=asn10.gjf
 Output=asn10.log
 Initial command:
 /opt/local/g09/l1.exe "/home/scratch/oscar/Gau-16985.inp" -scrdir="/home/scratch/oscar/"
 Default is to use a total of  16 processors:
                               16 via shared-memory
                                1 via Linda
 Entering Link 1 = /opt/local/g09/l1.exe PID=     16986.
  
 Copyright (c) 1988,1990,1992,1993,1995,1998,2003,2009,2013,
            Gaussian, Inc.  All Rights Reserved.
  
 This is part of the Gaussian(R) 09 program.  It is based on
 the Gaussian(R) 03 system (copyright 2003, Gaussian, Inc.),
 the Gaussian(R) 98 system (copyright 1998, Gaussian, Inc.),
 the Gaussian(R) 94 system (copyright 1995, Gaussian, Inc.),
 the Gaussian 92(TM) system (copyright 1992, Gaussian, Inc.),
 the Gaussian 90(TM) system (copyright 1990, Gaussian, Inc.),
 the Gaussian 88(TM) system (copyright 1988, Gaussian, Inc.),
 the Gaussian 86(TM) system (copyright 1986, Carnegie Mellon
 University), and the Gaussian 82(TM) system (copyright 1983,
 Carnegie Mellon University). Gaussian is a federally registered
 trademark of Gaussian, Inc.
  
 This software contains proprietary and confidential information,
 including trade secrets, belonging to Gaussian, Inc.
  
 This software is provided under written license and may be
 used, copied, transmitted, or stored only in accord with that
 written license.
  
 The following legend is applicable only to US Government
 contracts under FAR:
  
                    RESTRICTED RIGHTS LEGEND
  
 Use, reproduction and disclosure by the US Government is
 subject to restrictions as set forth in subparagraphs (a)
 and (c) of the Commercial Computer Software - Restricted
 Rights clause in FAR 52.227-19.
  
 Gaussian, Inc.
 340 Quinnipiac St., Bldg. 40, Wallingford CT 06492
  
  
 ---------------------------------------------------------------
 Warning -- This program may not be used in any manner that
 competes with the business of Gaussian, Inc. or will provide
 assistance to any competitor of Gaussian, Inc.  The licensee
 of this program is prohibited from giving any competitor of
 Gaussian, Inc. access to this program.  By using this program,
 the user acknowledges that Gaussian, Inc. is engaged in the
 business of creating and licensing software in the field of
 computational chemistry and represents and warrants to the
 licensee that it is not a competitor of Gaussian, Inc. and that
 it will not use this program in any manner prohibited above.
 ---------------------------------------------------------------
  

 Cite this work as:
 Gaussian 09, Revision D.01,
 M. J. Frisch, G. W. Trucks, H. B. Schlegel, G. E. Scuseria, 
 M. A. Robb, J. R. Cheeseman, G. Scalmani, V. Barone, B. Mennucci, 
 G. A. Petersson, H. Nakatsuji, M. Caricato, X. Li, H. P. Hratchian, 
 A. F. Izmaylov, J. Bloino, G. Zheng, J. L. Sonnenberg, M. Hada, 
 M. Ehara, K. Toyota, R. Fukuda, J. Hasegawa, M. Ishida, T. Nakajima, 
 Y. Honda, O. Kitao, H. Nakai, T. Vreven, J. A. Montgomery, Jr., 
 J. E. Peralta, F. Ogliaro, M. Bearpark, J. J. Heyd, E. Brothers, 
 K. N. Kudin, V. N. Staroverov, T. Keith, R. Kobayashi, J. Normand, 
 K. Raghavachari, A. Rendell, J. C. Burant, S. S. Iyengar, J. Tomasi, 
 M. Cossi, N. Rega, J. M. Millam, M. Klene, J. E. Knox, J. B. Cross, 
 V. Bakken, C. Adamo, J. Jaramillo, R. Gomperts, R. E. Stratmann, 
 O. Yazyev, A. J. Austin, R. Cammi, C. Pomelli, J. W. Ochterski, 
 R. L. Martin, K. Morokuma, V. G. Zakrzewski, G. A. Voth, 
 P. Salvador, J. J. Dannenberg, S. Dapprich, A. D. Daniels, 
 O. Farkas, J. B. Foresman, J. V. Ortiz, J. Cioslowski, 
 and D. J. Fox, Gaussian, Inc., Wallingford CT, 2013.
 
 ******************************************
 Gaussian 09:  EM64L-G09RevD.01 24-Apr-2013
                13-Jan-2020 
 ******************************************
 -------------------------------------------------------------
 # nmr=giao b3lyp/6-31G* nosymm geom=connectivity guess=huckel
 -------------------------------------------------------------
 1/38=1,57=2/1;
 2/12=2,15=1,17=6,18=5,40=1/2;
 3/5=1,6=6,7=1,11=2,16=1,25=1,30=1,74=-5/1,2,8,3;
 4/11=4/1;
 5/5=2,38=5/2;
 8/6=1,10=90,11=11/1;
 10/13=100,31=1,45=16/2;
 6/7=2,8=2,9=2,10=2,28=1/1;
 99/9=1/99;
 -----
 input
 -----
 Symbolic Z-matrix:
 Charge =  0 Multiplicity = 1
 C                    -1.78088  -1.19314  -0.414 
 C                    -0.88739  -1.94341   0.43952 
 C                     0.53979  -1.98353   0.68151 
 C                     1.67835  -1.42935  -0.01597 
 C                    -2.0419    0.20381  -0.69129 
 C                     2.04194  -0.20377  -0.69116 
 C                     1.781     1.19326  -0.41389 
 C                    -1.67827   1.42936  -0.01614 
 C                     0.88743   1.94353   0.43956 
 C                    -0.53978   1.98355   0.68155 
 As                   -3.99595  -1.1967   -2.04166 
 As                   -4.05363   1.99125  -1.2626 
 As                   -2.62675   3.70256   1.18505 
 As                    0.50592   4.12076   2.07482 
 As                    3.0526    3.57723   0.04473 
 As                    3.99583   1.19657  -2.0419 
 As                    4.05379  -1.99117  -1.26231 
 As                    2.62645  -3.70293   1.18482 
 As                   -0.50602  -4.12077   2.07478 
 As                   -3.0526   -3.57707   0.04476 
 N                    -2.80967  -1.97621  -0.8516 
 N                    -3.18325   0.35936  -1.42704 
 N                    -2.71463   2.31707  -0.03299 
 N                    -0.88916   3.08789   1.40695 
 N                     1.49183   3.07561   0.90465 
 N                     2.80976   1.97622  -0.85169 
 N                     3.18324  -0.35939  -1.42696 
 N                     2.71473  -2.31708  -0.03281 
 N                     0.88902  -3.08801   1.40677 
 N                    -1.49181  -3.07549   0.90454 
 Bq                   -4.70286  -4.70286   0.13192 
 Bq                   -4.51091  -4.70286   0.41616 
 Bq                   -4.31896  -4.70286   0.67194 
 Bq                   -4.127    -4.70286   0.91886 
 Bq                   -3.93505  -4.70286   1.17173 
 Bq                   -3.7431   -4.70286   1.41308 
 Bq                   -3.55114  -4.70286   1.63065 
 Bq                   -3.35919  -4.70286   1.83618 
 Bq                   -3.16724  -4.70286   2.04228 
 Bq                   -2.97528  -4.70286   2.24518 
 Bq                   -2.78333  -4.70286   2.43385 
 Bq                   -2.59137  -4.70286   2.60429 
 Bq                   -2.39942  -4.70286   2.76119 
 Bq                   -2.20747  -4.70286   2.91089 
 Bq                   -2.01551  -4.70286   3.05591 
 Bq                   -1.82356  -4.70286   3.19469 
 Bq                   -1.63161  -4.70286   3.32424 
 Bq                   -1.43965  -4.70286   3.44236 
 Bq                   -1.2477   -4.70286   3.54834 
 Bq                   -1.05575  -4.70286   3.64254 
 Bq                   -0.86379  -4.70286   3.72576 
 Bq                   -0.67184  -4.70286   3.79876 
 Bq                   -0.47988  -4.70286   3.86202 
 Bq                   -0.28793  -4.70286   3.91582 
 Bq                   -0.09598  -4.70286   3.96025 
 Bq                    0.09598  -4.70286   3.99535 
 Bq                    0.28793  -4.70286   4.02112 
 Bq                    0.47988  -4.70286   4.03753 
 Bq                    0.67184  -4.70286   4.04447 
 Bq                    0.86379  -4.70286   4.04168 
 Bq                    1.05575  -4.70286   4.02866 
 Bq                    1.2477   -4.70286   4.00466 
 Bq                    1.43965  -4.70286   3.9689 
 Bq                    1.63161  -4.70286   3.92099 
 Bq                    1.82356  -4.70286   3.86164 
 Bq                    2.01551  -4.70286   3.79307 
 Bq                    2.20747  -4.70286   3.71827 
 Bq                    2.39942  -4.70286   3.63877 
 Bq                    2.59137  -4.70286   3.55209 
 Bq                    2.78333  -4.70286   3.45187 
 Bq                    2.97528  -4.70286   3.33341 
 Bq                    3.16724  -4.70286   3.20073 
 Bq                    3.35919  -4.70286   3.06484 
 Bq                    3.55114  -4.70286   2.92952 
 Bq                    3.7431   -4.70286   2.78218 
 Bq                    3.93505  -4.70286   2.61103 
 Bq                    4.127    -4.70286   2.42838 
 Bq                    4.31896  -4.70286   2.25168 
 Bq                    4.51091  -4.70286   2.0661 
 Bq                    4.70286  -4.70286   1.85207 
 Bq                   -4.70286  -4.51091  -0.06004 
 Bq                   -4.51091  -4.51091   0.20369 
 Bq                   -4.31896  -4.51091   0.45993 
 Bq                   -4.127    -4.51091   0.72281 
 Bq                   -3.93505  -4.51091   0.97061 
 Bq                   -3.7431   -4.51091   1.19411 
 Bq                   -3.55114  -4.51091   1.41038 
 Bq                   -3.35919  -4.51091   1.62925 
 Bq                   -3.16724  -4.51091   1.84042 
 Bq                   -2.97528  -4.51091   2.03257 
 Bq                   -2.78333  -4.51091   2.20744 
 Bq                   -2.59137  -4.51091   2.37408 
 Bq                   -2.39942  -4.51091   2.53765 
 Bq                   -2.20747  -4.51091   2.69624 
 Bq                   -2.01551  -4.51091   2.84497 
 Bq                   -1.82356  -4.51091   2.98044 
 Bq                   -1.63161  -4.51091   3.10219 
 Bq                   -1.43965  -4.51091   3.21169 
 Bq                   -1.2477   -4.51091   3.31072 
 Bq                   -1.05575  -4.51091   3.4005 
 Bq                   -0.86379  -4.51091   3.48149 
 Bq                   -0.67184  -4.51091   3.5536 
 Bq                   -0.47988  -4.51091   3.6165 
 Bq                   -0.28793  -4.51091   3.66988 
 Bq                   -0.09598  -4.51091   3.71346 
 Bq                    0.09598  -4.51091   3.74713 
 Bq                    0.28793  -4.51091   3.77088 
 Bq                    0.47988  -4.51091   3.78485 
 Bq                    0.67184  -4.51091   3.78928 
 Bq                    0.86379  -4.51091   3.78451 
 Bq                    1.05575  -4.51091   3.77086 
 Bq                    1.2477   -4.51091   3.74842 
 Bq                    1.43965  -4.51091   3.71673 
 Bq                    1.63161  -4.51091   3.67458 
 Bq                    1.82356  -4.51091   3.62016 
 Bq                    2.01551  -4.51091   3.55204 
 Bq                    2.20747  -4.51091   3.47066 
 Bq                    2.39942  -4.51091   3.37941 
 Bq                    2.59137  -4.51091   3.2832 
 Bq                    2.78333  -4.51091   3.18391 
 Bq                    2.97528  -4.51091   3.07638 
 Bq                    3.16724  -4.51091   2.95158 
 Bq                    3.35919  -4.51091   2.80776 
 Bq                    3.55114  -4.51091   2.65624 
 Bq                    3.7431   -4.51091   2.50732 
 Bq                    3.93505  -4.51091   2.35117 
 Bq                    4.127    -4.51091   2.17072 
 Bq                    4.31896  -4.51091   1.97519 
 Bq                    4.51091  -4.51091   1.78629 
 Bq                    4.70286  -4.51091   1.5899 
 Bq                   -4.70286  -4.31896  -0.26061 
 Bq                   -4.51091  -4.31896   0.00358 
 Bq                   -4.31896  -4.31896   0.27553 
 Bq                   -4.127    -4.31896   0.53087 
 Bq                   -3.93505  -4.31896   0.76163 
 Bq                   -3.7431   -4.31896   0.98847 
 Bq                   -3.55114  -4.31896   1.21833 
 Bq                   -3.35919  -4.31896   1.43616 
 Bq                   -3.16724  -4.31896   1.63252 
 Bq                   -2.97528  -4.31896   1.81494 
 Bq                   -2.78333  -4.31896   1.99401 
 Bq                   -2.59137  -4.31896   2.17089 
 Bq                   -2.39942  -4.31896   2.33918 
 Bq                   -2.20747  -4.31896   2.49309 
 Bq                   -2.01551  -4.31896   2.63168 
 Bq                   -1.82356  -4.31896   2.75764 
 Bq                   -1.63161  -4.31896   2.87416 
 Bq                   -1.43965  -4.31896   2.98301 
 Bq                   -1.2477   -4.31896   3.08436 
 Bq                   -1.05575  -4.31896   3.17745 
 Bq                   -0.86379  -4.31896   3.26133 
 Bq                   -0.67184  -4.31896   3.3353 
 Bq                   -0.47988  -4.31896   3.39895 
 Bq                   -0.28793  -4.31896   3.45214 
 Bq                   -0.09598  -4.31896   3.49485 
 Bq                    0.09598  -4.31896   3.52708 
 Bq                    0.28793  -4.31896   3.54885 
 Bq                    0.47988  -4.31896   3.56013 
 Bq                    0.67184  -4.31896   3.56095 
 Bq                    0.86379  -4.31896   3.55145 
 Bq                    1.05575  -4.31896   3.53205 
 Bq                    1.2477   -4.31896   3.50343 
 Bq                    1.43965  -4.31896   3.46656 
 Bq                    1.63161  -4.31896   3.42218 
 Bq                    1.82356  -4.31896   3.37014 
 Bq                    2.01551  -4.31896   3.30866 
 Bq                    2.20747  -4.31896   3.23455 
 Bq                    2.39942  -4.31896   3.14512 
 Bq                    2.59137  -4.31896   3.04131 
 Bq                    2.78333  -4.31896   2.92892 
 Bq                    2.97528  -4.31896   2.81434 
 Bq                    3.16724  -4.31896   2.6964 
 Bq                    3.35919  -4.31896   2.56452 
 Bq                    3.55114  -4.31896   2.41118 
 Bq                    3.7431   -4.31896   2.2458 
 Bq                    3.93505  -4.31896   2.08344 
 Bq                    4.127    -4.31896   1.91717 
 Bq                    4.31896  -4.31896   1.7263 
 Bq                    4.51091  -4.31896   1.51883 
 Bq                    4.70286  -4.31896   1.31912 
 Bq                   -4.70286  -4.127    -0.45021 
 Bq                   -4.51091  -4.127    -0.17005 
 Bq                   -4.31896  -4.127     0.09436 
 Bq                   -4.127    -4.127     0.33311 
 Bq                   -3.93505  -4.127     0.56943 
 Bq                   -3.7431   -4.127     0.80903 
 Bq                   -3.55114  -4.127     1.03353 
 Bq                   -3.35919  -4.127     1.23567 
 Bq                   -3.16724  -4.127     1.42748 
 Bq                   -2.97528  -4.127     1.61909 
 Bq                   -2.78333  -4.127     1.80688 
 Bq                   -2.59137  -4.127     1.98157 
 Bq                   -2.39942  -4.127     2.13912 
 Bq                   -2.20747  -4.127     2.28245 
 Bq                   -2.01551  -4.127     2.41669 
 Bq                   -1.82356  -4.127     2.54479 
 Bq                   -1.63161  -4.127     2.66668 
 Bq                   -1.43965  -4.127     2.78059 
 Bq                   -1.2477   -4.127     2.8847 
 Bq                   -1.05575  -4.127     2.97794 
 Bq                   -0.86379  -4.127     3.06003 
 Bq                   -0.67184  -4.127     3.13119 
 Bq                   -0.47988  -4.127     3.19181 
 Bq                   -0.28793  -4.127     3.24228 
 Bq                   -0.09598  -4.127     3.28285 
 Bq                    0.09598  -4.127     3.31366 
 Bq                    0.28793  -4.127     3.33469 
 Bq                    0.47988  -4.127     3.34583 
 Bq                    0.67184  -4.127     3.34681 
 Bq                    0.86379  -4.127     3.33725 
 Bq                    1.05575  -4.127     3.31677 
 Bq                    1.2477   -4.127     3.28514 
 Bq                    1.43965  -4.127     3.24264 
 Bq                    1.63161  -4.127     3.19034 
 Bq                    1.82356  -4.127     3.13007 
 Bq                    2.01551  -4.127     3.06358 
 Bq                    2.20747  -4.127     2.99096 
 Bq                    2.39942  -4.127     2.90924 
 Bq                    2.59137  -4.127     2.81331 
 Bq                    2.78333  -4.127     2.70023 
 Bq                    2.97528  -4.127     2.57406 
 Bq                    3.16724  -4.127     2.44408 
 Bq                    3.35919  -4.127     2.31388 
 Bq                    3.55114  -4.127     2.17336 
 Bq                    3.7431   -4.127     2.01048 
 Bq                    3.93505  -4.127     1.8325 
 Bq                    4.127    -4.127     1.65779 
 Bq                    4.31896  -4.127     1.48066 
 Bq                    4.51091  -4.127     1.27786 
 Bq                    4.70286  -4.127     1.05932 
 Bq                   -4.70286  -3.93505  -0.614 
 Bq                   -4.51091  -3.93505  -0.33891 
 Bq                   -4.31896  -3.93505  -0.09155 
 Bq                   -4.127    -3.93505   0.15277 
 Bq                   -3.93505  -3.93505   0.40141 
 Bq                   -3.7431   -3.93505   0.63354 
 Bq                   -3.55114  -3.93505   0.84274 
 Bq                   -3.35919  -3.93505   1.0443 
 Bq                   -3.16724  -3.93505   1.24732 
 Bq                   -2.97528  -3.93505   1.44404 
 Bq                   -2.78333  -3.93505   1.62397 
 Bq                   -2.59137  -3.93505   1.78622 
 Bq                   -2.39942  -3.93505   1.93731 
 Bq                   -2.20747  -3.93505   2.08299 
 Bq                   -2.01551  -3.93505   2.22408 
 Bq                   -1.82356  -3.93505   2.35782 
 Bq                   -1.63161  -3.93505   2.48104 
 Bq                   -1.43965  -3.93505   2.59203 
 Bq                   -1.2477   -3.93505   2.69068 
 Bq                   -1.05575  -3.93505   2.77782 
 Bq                   -0.86379  -3.93505   2.85438 
 Bq                   -0.67184  -3.93505   2.92111 
 Bq                   -0.47988  -3.93505   2.97837 
 Bq                   -0.28793  -3.93505   3.02633 
 Bq                   -0.09598  -3.93505   3.065 
 Bq                    0.09598  -3.93505   3.09437 
 Bq                    0.28793  -3.93505   3.11444 
 Bq                    0.47988  -3.93505   3.12522 
 Bq                    0.67184  -3.93505   3.1267 
 Bq                    0.86379  -3.93505   3.11872 
 Bq                    1.05575  -3.93505   3.10089 
 Bq                    1.2477   -3.93505   3.0725 
 Bq                    1.43965  -3.93505   3.03259 
 Bq                    1.63161  -3.93505   2.98035 
 Bq                    1.82356  -3.93505   2.91587 
 Bq                    2.01551  -3.93505   2.84088 
 Bq                    2.20747  -3.93505   2.75855 
 Bq                    2.39942  -3.93505   2.67161 
 Bq                    2.59137  -3.93505   2.57927 
 Bq                    2.78333  -3.93505   2.47578 
 Bq                    2.97528  -3.93505   2.3546 
 Bq                    3.16724  -3.93505   2.21663 
 Bq                    3.35919  -3.93505   2.07236 
 Bq                    3.55114  -3.93505   1.92956 
 Bq                    3.7431   -3.93505   1.77911 
 Bq                    3.93505  -3.93505   1.60573 
 Bq                    4.127    -3.93505   1.41584 
 Bq                    4.31896  -3.93505   1.23027 
 Bq                    4.51091  -3.93505   1.04165 
 Bq                    4.70286  -3.93505   0.82531 
 Bq                   -4.70286  -3.7431   -0.76946 
 Bq                   -4.51091  -3.7431   -0.51224 
 Bq                   -4.31896  -3.7431   -0.26152 
 Bq                   -4.127    -3.7431   -0.00445 
 Bq                   -3.93505  -3.7431    0.23672 
 Bq                   -3.7431   -3.7431    0.45385 
 Bq                   -3.55114  -3.7431    0.66447 
 Bq                   -3.35919  -3.7431    0.87765 
 Bq                   -3.16724  -3.7431    1.08252 
 Bq                   -2.97528  -3.7431    1.26811 
 Bq                   -2.78333  -3.7431    1.43676 
 Bq                   -2.59137  -3.7431    1.59762 
 Bq                   -2.39942  -3.7431    1.75552 
 Bq                   -2.20747  -3.7431    1.90825 
 Bq                   -2.01551  -3.7431    2.05084 
 Bq                   -1.82356  -3.7431    2.18003 
 Bq                   -1.63161  -3.7431    2.29553 
 Bq                   -1.43965  -3.7431    2.3989 
 Bq                   -1.2477   -3.7431    2.49197 
 Bq                   -1.05575  -3.7431    2.57591 
 Bq                   -0.86379  -3.7431    2.65113 
 Bq                   -0.67184  -3.7431    2.7175 
 Bq                   -0.47988  -3.7431    2.77468 
 Bq                   -0.28793  -3.7431    2.82232 
 Bq                   -0.09598  -3.7431    2.86018 
 Bq                    0.09598  -3.7431    2.88811 
 Bq                    0.28793  -3.7431    2.90613 
 Bq                    0.47988  -3.7431    2.91436 
 Bq                    0.67184  -3.7431    2.91306 
 Bq                    0.86379  -3.7431    2.90256 
 Bq                    1.05575  -3.7431    2.88322 
 Bq                    1.2477   -3.7431    2.85516 
 Bq                    1.43965  -3.7431    2.81797 
 Bq                    1.63161  -3.7431    2.77048 
 Bq                    1.82356  -3.7431    2.71086 
 Bq                    2.01551  -3.7431    2.63755 
 Bq                    2.20747  -3.7431    2.55085 
 Bq                    2.39942  -3.7431    2.454 
 Bq                    2.59137  -3.7431    2.35198 
 Bq                    2.78333  -3.7431    2.24701 
 Bq                    2.97528  -3.7431    2.13425 
 Bq                    3.16724  -3.7431    2.00455 
 Bq                    3.35919  -3.7431    1.85556 
 Bq                    3.55114  -3.7431    1.69827 
 Bq                    3.7431   -3.7431    1.54353 
 Bq                    3.93505  -3.7431    1.3823 
 Bq                    4.127    -3.7431    1.19701 
 Bq                    4.31896  -3.7431    0.99582 
 Bq                    4.51091  -3.7431    0.80098 
 Bq                    4.70286  -3.7431    0.59964 
 Bq                   -4.70286  -3.55114  -0.92888 
 Bq                   -4.51091  -3.55114  -0.67295 
 Bq                   -4.31896  -3.55114  -0.40864 
 Bq                   -4.127    -3.55114  -0.15694 
 Bq                   -3.93505  -3.55114   0.06894 
 Bq                   -3.7431   -3.55114   0.28749 
 Bq                   -3.55114  -3.55114   0.50974 
 Bq                   -3.35919  -3.55114   0.72297 
 Bq                   -3.16724  -3.55114   0.91529 
 Bq                   -2.97528  -3.55114   1.0915 
 Bq                   -2.78333  -3.55114   1.26263 
 Bq                   -2.59137  -3.55114   1.43199 
 Bq                   -2.39942  -3.55114   1.59444 
 Bq                   -2.20747  -3.55114   1.74372 
 Bq                   -2.01551  -3.55114   1.87772 
 Bq                   -1.82356  -3.55114   1.9983 
 Bq                   -1.63161  -3.55114   2.10857 
 Bq                   -1.43965  -3.55114   2.21063 
 Bq                   -1.2477   -3.55114   2.3051 
 Bq                   -1.05575  -3.55114   2.39148 
 Bq                   -0.86379  -3.55114   2.46897 
 Bq                   -0.67184  -3.55114   2.53681 
 Bq                   -0.47988  -3.55114   2.59453 
 Bq                   -0.28793  -3.55114   2.64192 
 Bq                   -0.09598  -3.55114   2.67887 
 Bq                    0.09598  -3.55114   2.70537 
 Bq                    0.28793  -3.55114   2.72143 
 Bq                    0.47988  -3.55114   2.72705 
 Bq                    0.67184  -3.55114   2.72234 
 Bq                    0.86379  -3.55114   2.70751 
 Bq                    1.05575  -3.55114   2.68304 
 Bq                    1.2477   -3.55114   2.64966 
 Bq                    1.43965  -3.55114   2.60821 
 Bq                    1.63161  -3.55114   2.55916 
 Bq                    1.82356  -3.55114   2.50191 
 Bq                    2.01551  -3.55114   2.43434 
 Bq                    2.20747  -3.55114   2.35336 
 Bq                    2.39942  -3.55114   2.2571 
 Bq                    2.59137  -3.55114   2.14767 
 Bq                    2.78333  -3.55114   2.03133 
 Bq                    2.97528  -3.55114   1.91322 
 Bq                    3.16724  -3.55114   1.79004 
 Bq                    3.35919  -3.55114   1.65074 
 Bq                    3.55114  -3.55114   1.49052 
 Bq                    3.7431   -3.55114   1.3213 
 Bq                    3.93505  -3.55114   1.15577 
 Bq                    4.127    -3.55114   0.98291 
 Bq                    4.31896  -3.55114   0.78422 
 Bq                    4.51091  -3.55114   0.57293 
 Bq                    4.70286  -3.55114   0.37002 
 Bq                   -4.70286  -3.35919  -1.08048 
 Bq                   -4.51091  -3.35919  -0.81121 
 Bq                   -4.31896  -3.35919  -0.54795 
 Bq                   -4.127    -3.35919  -0.31193 
 Bq                   -3.93505  -3.35919  -0.08663 
 Bq                   -3.7431   -3.35919   0.14354 
 Bq                   -3.55114  -3.35919   0.36584 
 Bq                   -3.35919  -3.35919   0.56616 
 Bq                   -3.16724  -3.35919   0.75035 
 Bq                   -2.97528  -3.35919   0.9312 
 Bq                   -2.78333  -3.35919   1.11092 
 Bq                   -2.59137  -3.35919   1.28189 
 Bq                   -2.39942  -3.35919   1.43725 
 Bq                   -2.20747  -3.35919   1.57665 
 Bq                   -2.01551  -3.35919   1.70413 
 Bq                   -1.82356  -3.35919   1.82369 
 Bq                   -1.63161  -3.35919   1.93688 
 Bq                   -1.43965  -3.35919   2.04306 
 Bq                   -1.2477   -3.35919   2.1407 
 Bq                   -1.05575  -3.35919   2.22844 
 Bq                   -0.86379  -3.35919   2.30556 
 Bq                   -0.67184  -3.35919   2.37189 
 Bq                   -0.47988  -3.35919   2.42757 
 Bq                   -0.28793  -3.35919   2.47287 
 Bq                   -0.09598  -3.35919   2.50799 
 Bq                    0.09598  -3.35919   2.53306 
 Bq                    0.28793  -3.35919   2.54808 
 Bq                    0.47988  -3.35919   2.55293 
 Bq                    0.67184  -3.35919   2.54739 
 Bq                    0.86379  -3.35919   2.5312 
 Bq                    1.05575  -3.35919   2.50423 
 Bq                    1.2477   -3.35919   2.46663 
 Bq                    1.43965  -3.35919   2.41915 
 Bq                    1.63161  -3.35919   2.36312 
 Bq                    1.82356  -3.35919   2.30007 
 Bq                    2.01551  -3.35919   2.23066 
 Bq                    2.20747  -3.35919   2.15333 
 Bq                    2.39942  -3.35919   2.06409 
 Bq                    2.59137  -3.35919   1.95888 
 Bq                    2.78333  -3.35919   1.83807 
 Bq                    2.97528  -3.35919   1.7085 
 Bq                    3.16724  -3.35919   1.57781 
 Bq                    3.35919  -3.35919   1.44377 
 Bq                    3.55114  -3.35919   1.29361 
 Bq                    3.7431   -3.35919   1.12146 
 Bq                    3.93505  -3.35919   0.94144 
 Bq                    4.127    -3.35919   0.7663 
 Bq                    4.31896  -3.35919   0.58044 
 Bq                    4.51091  -3.35919   0.36732 
 Bq                    4.70286  -3.35919   0.1482 
 Bq                   -4.70286  -3.16724  -1.21166 
 Bq                   -4.51091  -3.16724  -0.93733 
 Bq                   -4.31896  -3.16724  -0.68887 
 Bq                   -4.127    -3.16724  -0.4574 
 Bq                   -3.93505  -3.16724  -0.2209 
 Bq                   -3.7431   -3.16724   0.01112 
 Bq                   -3.55114  -3.16724   0.22087 
 Bq                   -3.35919  -3.16724   0.41306 
 Bq                   -3.16724  -3.16724   0.60256 
 Bq                   -2.97528  -3.16724   0.79171 
 Bq                   -2.78333  -3.16724   0.97097 
 Bq                   -2.59137  -3.16724   1.13289 
 Bq                   -2.39942  -3.16724   1.27878 
 Bq                   -2.20747  -3.16724   1.41459 
 Bq                   -2.01551  -3.16724   1.54461 
 Bq                   -1.82356  -3.16724   1.66924 
 Bq                   -1.63161  -3.16724   1.78632 
 Bq                   -1.43965  -3.16724   1.89342 
 Bq                   -1.2477   -3.16724   1.98914 
 Bq                   -1.05575  -3.16724   2.07321 
 Bq                   -0.86379  -3.16724   2.14604 
 Bq                   -0.67184  -3.16724   2.20828 
 Bq                   -0.47988  -3.16724   2.26047 
 Bq                   -0.28793  -3.16724   2.30298 
 Bq                   -0.09598  -3.16724   2.33602 
 Bq                    0.09598  -3.16724   2.35965 
 Bq                    0.28793  -3.16724   2.3739 
 Bq                    0.47988  -3.16724   2.37867 
 Bq                    0.67184  -3.16724   2.37375 
 Bq                    0.86379  -3.16724   2.35879 
 Bq                    1.05575  -3.16724   2.33323 
 Bq                    1.2477   -3.16724   2.29645 
 Bq                    1.43965  -3.16724   2.24801 
 Bq                    1.63161  -3.16724   2.18819 
 Bq                    1.82356  -3.16724   2.1184 
 Bq                    2.01551  -3.16724   2.04106 
 Bq                    2.20747  -3.16724   1.95832 
 Bq                    2.39942  -3.16724   1.8698 
 Bq                    2.59137  -3.16724   1.7712 
 Bq                    2.78333  -3.16724   1.65656 
 Bq                    2.97528  -3.16724   1.5246 
 Bq                    3.16724  -3.16724   1.38273 
 Bq                    3.35919  -3.16724   1.24052 
 Bq                    3.55114  -3.16724   1.09562 
 Bq                    3.7431   -3.16724   0.93316 
 Bq                    3.93505  -3.16724   0.74843 
 Bq                    4.127    -3.16724   0.55922 
 Bq                    4.31896  -3.16724   0.37503 
 Bq                    4.51091  -3.16724   0.17386 
 Bq                    4.70286  -3.16724  -0.05319 
 Bq                   -4.70286  -2.97528  -1.32622 
 Bq                   -4.51091  -2.97528  -1.06263 
 Bq                   -4.31896  -2.97528  -0.8239 
 Bq                   -4.127    -2.97528  -0.58325 
 Bq                   -3.93505  -2.97528  -0.34163 
 Bq                   -3.7431   -2.97528  -0.12074 
 Bq                   -3.55114  -2.97528   0.07963 
 Bq                   -3.35919  -2.97528   0.27646 
 Bq                   -3.16724  -2.97528   0.47426 
 Bq                   -2.97528  -2.97528   0.66224 
 Bq                   -2.78333  -2.97528   0.83168 
 Bq                   -2.59137  -2.97528   0.98492 
 Bq                   -2.39942  -2.97528   1.12955 
 Bq                   -2.20747  -2.97528   1.27001 
 Bq                   -2.01551  -2.97528   1.40533 
 Bq                   -1.82356  -2.97528   1.53191 
 Bq                   -1.63161  -2.97528   1.64676 
 Bq                   -1.43965  -2.97528   1.74887 
 Bq                   -1.2477   -2.97528   1.83878 
 Bq                   -1.05575  -2.97528   1.91762 
 Bq                   -0.86379  -2.97528   1.9864 
 Bq                   -0.67184  -2.97528   2.04571 
 Bq                   -0.47988  -2.97528   2.09578 
 Bq                   -0.28793  -2.97528   2.13664 
 Bq                   -0.09598  -2.97528   2.1682 
 Bq                    0.09598  -2.97528   2.19041 
 Bq                    0.28793  -2.97528   2.20326 
 Bq                    0.47988  -2.97528   2.20681 
 Bq                    0.67184  -2.97528   2.20115 
 Bq                    0.86379  -2.97528   2.18625 
 Bq                    1.05575  -2.97528   2.16189 
 Bq                    1.2477   -2.97528   2.12747 
 Bq                    1.43965  -2.97528   2.08197 
 Bq                    1.63161  -2.97528   2.02427 
 Bq                    1.82356  -2.97528   1.95384 
 Bq                    2.01551  -2.97528   1.87168 
 Bq                    2.20747  -2.97528   1.78078 
 Bq                    2.39942  -2.97528   1.68474 
 Bq                    2.59137  -2.97528   1.58454 
 Bq                    2.78333  -2.97528   1.47572 
 Bq                    2.97528  -2.97528   1.3507 
 Bq                    3.16724  -2.97528   1.20715 
 Bq                    3.35919  -2.97528   1.05377 
 Bq                    3.55114  -2.97528   0.90137 
 Bq                    3.7431   -2.97528   0.74542 
 Bq                    3.93505  -2.97528   0.56895 
 Bq                    4.127    -2.97528   0.37176 
 Bq                    4.31896  -2.97528   0.17553 
 Bq                    4.51091  -2.97528  -0.01879 
 Bq                    4.70286  -2.97528  -0.23795 
 Bq                   -4.70286  -2.78333  -1.43515 
 Bq                   -4.51091  -2.78333  -1.18536 
 Bq                   -4.31896  -2.78333  -0.94244 
 Bq                   -4.127    -2.78333  -0.69307 
 Bq                   -3.93505  -2.78333  -0.45931 
 Bq                   -3.7431   -2.78333  -0.2497 
 Bq                   -3.55114  -2.78333  -0.04685 
 Bq                   -3.35919  -2.78333   0.15857 
 Bq                   -3.16724  -2.78333   0.35591 
 Bq                   -2.97528  -2.78333   0.53407 
 Bq                   -2.78333  -2.78333   0.69518 
 Bq                   -2.59137  -2.78333   0.84837 
 Bq                   -2.39942  -2.78333   0.99858 
 Bq                   -2.20747  -2.78333   1.14374 
 Bq                   -2.01551  -2.78333   1.27889 
 Bq                   -1.82356  -2.78333   1.40074 
 Bq                   -1.63161  -2.78333   1.50894 
 Bq                   -1.43965  -2.78333   1.60502 
 Bq                   -1.2477   -2.78333   1.69079 
 Bq                   -1.05575  -2.78333   1.76745 
 Bq                   -0.86379  -2.78333   1.83539 
 Bq                   -0.67184  -2.78333   1.89452 
 Bq                   -0.47988  -2.78333   1.94449 
 Bq                   -0.28793  -2.78333   1.98494 
 Bq                   -0.09598  -2.78333   2.01562 
 Bq                    0.09598  -2.78333   2.03639 
 Bq                    0.28793  -2.78333   2.04726 
 Bq                    0.47988  -2.78333   2.04835 
 Bq                    0.67184  -2.78333   2.03993 
 Bq                    0.86379  -2.78333   2.02235 
 Bq                    1.05575  -2.78333   1.99595 
 Bq                    1.2477   -2.78333   1.96085 
 Bq                    1.43965  -2.78333   1.91663 
 Bq                    1.63161  -2.78333   1.8621 
 Bq                    1.82356  -2.78333   1.79545 
 Bq                    2.01551  -2.78333   1.71516 
 Bq                    2.20747  -2.78333   1.62156 
 Bq                    2.39942  -2.78333   1.51796 
 Bq                    2.59137  -2.78333   1.4093 
 Bq                    2.78333  -2.78333   1.29767 
 Bq                    2.97528  -2.78333   1.17812 
 Bq                    3.16724  -2.78333   1.04152 
 Bq                    3.35919  -2.78333   0.88574 
 Bq                    3.55114  -2.78333   0.72187 
 Bq                    3.7431   -2.78333   0.56058 
 Bq                    3.93505  -2.78333   0.39253 
 Bq                    4.127    -2.78333   0.20033 
 Bq                    4.31896  -2.78333  -0.00749 
 Bq                    4.51091  -2.78333  -0.20886 
 Bq                    4.70286  -2.78333  -0.4171 
 Bq                   -4.70286  -2.59137  -1.54248 
 Bq                   -4.51091  -2.59137  -1.29649 
 Bq                   -4.31896  -2.59137  -1.04333 
 Bq                   -4.127    -2.59137  -0.79614 
 Bq                   -3.93505  -2.59137  -0.57483 
 Bq                   -3.7431   -2.59137  -0.36661 
 Bq                   -3.55114  -2.59137  -0.15525 
 Bq                   -3.35919  -2.59137   0.05177 
 Bq                   -3.16724  -2.59137   0.24007 
 Bq                   -2.97528  -2.59137   0.40954 
 Bq                   -2.78333  -2.59137   0.5706 
 Bq                   -2.59137  -2.59137   0.72962 
 Bq                   -2.39942  -2.59137   0.88401 
 Bq                   -2.20747  -2.59137   1.02755 
 Bq                   -2.01551  -2.59137   1.15652 
 Bq                   -1.82356  -2.59137   1.27128 
 Bq                   -1.63161  -2.59137   1.37438 
 Bq                   -1.43965  -2.59137   1.46826 
 Bq                   -1.2477   -2.59137   1.5541 
 Bq                   -1.05575  -2.59137   1.63197 
 Bq                   -0.86379  -2.59137   1.70127 
 Bq                   -0.67184  -2.59137   1.76132 
 Bq                   -0.47988  -2.59137   1.81157 
 Bq                   -0.28793  -2.59137   1.85166 
 Bq                   -0.09598  -2.59137   1.88141 
 Bq                    0.09598  -2.59137   1.90075 
 Bq                    0.28793  -2.59137   1.90968 
 Bq                    0.47988  -2.59137   1.90827 
 Bq                    0.67184  -2.59137   1.8967 
 Bq                    0.86379  -2.59137   1.87533 
 Bq                    1.05575  -2.59137   1.84471 
 Bq                    1.2477   -2.59137   1.80553 
 Bq                    1.43965  -2.59137   1.75837 
 Bq                    1.63161  -2.59137   1.70318 
 Bq                    1.82356  -2.59137   1.63876 
 Bq                    2.01551  -2.59137   1.56269 
 Bq                    2.20747  -2.59137   1.47241 
 Bq                    2.39942  -2.59137   1.36756 
 Bq                    2.59137  -2.59137   1.25186 
 Bq                    2.78333  -2.59137   1.13154 
 Bq                    2.97528  -2.59137   1.00917 
 Bq                    3.16724  -2.59137   0.87839 
 Bq                    3.35919  -2.59137   0.72879 
 Bq                    3.55114  -2.59137   0.56045 
 Bq                    3.7431   -2.59137   0.38779 
 Bq                    3.93505  -2.59137   0.21826 
 Bq                    4.127    -2.59137   0.03564 
 Bq                    4.31896  -2.59137  -0.17286 
 Bq                    4.51091  -2.59137  -0.38733 
 Bq                    4.70286  -2.59137  -0.59464 
 Bq                   -4.70286  -2.39942  -1.64351 
 Bq                   -4.51091  -2.39942  -1.39085 
 Bq                   -4.31896  -2.39942  -1.13297 
 Bq                   -4.127    -2.39942  -0.89652 
 Bq                   -3.93505  -2.39942  -0.68166 
 Bq                   -3.7431   -2.39942  -0.46663 
 Bq                   -3.55114  -2.39942  -0.25073 
 Bq                   -3.35919  -2.39942  -0.05079 
 Bq                   -3.16724  -2.39942   0.12803 
 Bq                   -2.97528  -2.39942   0.29625 
 Bq                   -2.78333  -2.39942   0.46289 
 Bq                   -2.59137  -2.39942   0.62608 
 Bq                   -2.39942  -2.39942   0.77836 
 Bq                   -2.20747  -2.39942   0.9151 
 Bq                   -2.01551  -2.39942   1.03709 
 Bq                   -1.82356  -2.39942   1.14787 
 Bq                   -1.63161  -2.39942   1.2505 
 Bq                   -1.43965  -2.39942   1.3461 
 Bq                   -1.2477   -2.39942   1.43426 
 Bq                   -1.05575  -2.39942   1.51387 
 Bq                   -0.86379  -2.39942   1.58392 
 Bq                   -0.67184  -2.39942   1.64377 
 Bq                   -0.47988  -2.39942   1.69315 
 Bq                   -0.28793  -2.39942   1.732 
 Bq                   -0.09598  -2.39942   1.76035 
 Bq                    0.09598  -2.39942   1.77826 
 Bq                    0.28793  -2.39942   1.78572 
 Bq                    0.47988  -2.39942   1.78268 
 Bq                    0.67184  -2.39942   1.76912 
 Bq                    0.86379  -2.39942   1.74508 
 Bq                    1.05575  -2.39942   1.71085 
 Bq                    1.2477   -2.39942   1.66706 
 Bq                    1.43965  -2.39942   1.61472 
 Bq                    1.63161  -2.39942   1.55494 
 Bq                    1.82356  -2.39942   1.48813 
 Bq                    2.01551  -2.39942   1.41318 
 Bq                    2.20747  -2.39942   1.32701 
 Bq                    2.39942  -2.39942   1.22609 
 Bq                    2.59137  -2.39942   1.10964 
 Bq                    2.78333  -2.39942   0.98227 
 Bq                    2.97528  -2.39942   0.85146 
 Bq                    3.16724  -2.39942   0.71907 
 Bq                    3.35919  -2.39942   0.57607 
 Bq                    3.55114  -2.39942   0.41196 
 Bq                    3.7431   -2.39942   0.23188 
 Bq                    3.93505  -2.39942   0.05268 
 Bq                    4.127    -2.39942  -0.12635 
 Bq                    4.31896  -2.39942  -0.32698 
 Bq                    4.51091  -2.39942  -0.54904 
 Bq                    4.70286  -2.39942  -0.76588 
 Bq                   -4.70286  -2.20747  -1.73189 
 Bq                   -4.51091  -2.20747  -1.47035 
 Bq                   -4.31896  -2.20747  -1.21715 
 Bq                   -4.127    -2.20747  -0.99127 
 Bq                   -3.93505  -2.20747  -0.77407 
 Bq                   -3.7431   -2.20747  -0.55199 
 Bq                   -3.55114  -2.20747  -0.33954 
 Bq                   -3.35919  -2.20747  -0.14948 
 Bq                   -3.16724  -2.20747   0.02575 
 Bq                   -2.97528  -2.20747   0.19862 
 Bq                   -2.78333  -2.20747   0.36996 
 Bq                   -2.59137  -2.20747   0.53153 
 Bq                   -2.39942  -2.20747   0.67702 
 Bq                   -2.20747  -2.20747   0.80688 
 Bq                   -2.01551  -2.20747   0.92557 
 Bq                   -1.82356  -2.20747   1.03694 
 Bq                   -1.63161  -2.20747   1.14217 
 Bq                   -1.43965  -2.20747   1.24035 
 Bq                   -1.2477   -2.20747   1.32981 
 Bq                   -1.05575  -2.20747   1.40922 
 Bq                   -0.86379  -2.20747   1.47793 
 Bq                   -0.67184  -2.20747   1.53582 
 Bq                   -0.47988  -2.20747   1.58306 
 Bq                   -0.28793  -2.20747   1.61987 
 Bq                   -0.09598  -2.20747   1.64647 
 Bq                    0.09598  -2.20747   1.66294 
 Bq                    0.28793  -2.20747   1.6693 
 Bq                    0.47988  -2.20747   1.66543 
 Bq                    0.67184  -2.20747   1.65114 
 Bq                    0.86379  -2.20747   1.6262 
 Bq                    1.05575  -2.20747   1.59044 
 Bq                    1.2477   -2.20747   1.54398 
 Bq                    1.43965  -2.20747   1.48747 
 Bq                    1.63161  -2.20747   1.42225 
 Bq                    1.82356  -2.20747   1.34997 
 Bq                    2.01551  -2.20747   1.27157 
 Bq                    2.20747  -2.20747   1.18584 
 Bq                    2.39942  -2.20747   1.08893 
 Bq                    2.59137  -2.20747   0.9764 
 Bq                    2.78333  -2.20747   0.84779 
 Bq                    2.97528  -2.20747   0.70941 
 Bq                    3.16724  -2.20747   0.5695 
 Bq                    3.35919  -2.20747   0.42723 
 Bq                    3.55114  -2.20747   0.27014 
 Bq                    3.7431   -2.20747   0.09065 
 Bq                    3.93505  -2.20747  -0.09847 
 Bq                    4.127    -2.20747  -0.28272 
 Bq                    4.31896  -2.20747  -0.47563 
 Bq                    4.51091  -2.20747  -0.69588 
 Bq                    4.70286  -2.20747  -0.92447 
 Bq                   -4.70286  -2.01551  -1.80512 
 Bq                   -4.51091  -2.01551  -1.53987 
 Bq                   -4.31896  -2.01551  -1.2968 
 Bq                   -4.127    -2.01551  -1.07528 
 Bq                   -3.93505  -2.01551  -0.85123 
 Bq                   -3.7431   -2.01551  -0.62765 
 Bq                   -3.55114  -2.01551  -0.42379 
 Bq                   -3.35919  -2.01551  -0.24025 
 Bq                   -3.16724  -2.01551  -0.06247 
 Bq                   -2.97528  -2.01551   0.11569 
 Bq                   -2.78333  -2.01551   0.28686 
 Bq                   -2.59137  -2.01551   0.44225 
 Bq                   -2.39942  -2.01551   0.58076 
 Bq                   -2.20747  -2.01551   0.70732 
 Bq                   -2.01551  -2.01551   0.82694 
 Bq                   -1.82356  -2.01551   0.94126 
 Bq                   -1.63161  -2.01551   1.04896 
 Bq                   -1.43965  -2.01551   1.14779 
 Bq                   -1.2477   -2.01551   1.23605 
 Bq                   -1.05575  -2.01551   1.31304 
 Bq                   -0.86379  -2.01551   1.37886 
 Bq                   -0.67184  -2.01551   1.43391 
 Bq                   -0.47988  -2.01551   1.47863 
 Bq                   -0.28793  -2.01551   1.51333 
 Bq                   -0.09598  -2.01551   1.53816 
 Bq                    0.09598  -2.01551   1.5532 
 Bq                    0.28793  -2.01551   1.55845 
 Bq                    0.47988  -2.01551   1.55384 
 Bq                    0.67184  -2.01551   1.5392 
 Bq                    0.86379  -2.01551   1.51423 
 Bq                    1.05575  -2.01551   1.4785 
 Bq                    1.2477   -2.01551   1.43159 
 Bq                    1.43965  -2.01551   1.37343 
 Bq                    1.63161  -2.01551   1.30468 
 Bq                    1.82356  -2.01551   1.22707 
 Bq                    2.01551  -2.01551   1.14285 
 Bq                    2.20747  -2.01551   1.05332 
 Bq                    2.39942  -2.01551   0.95685 
 Bq                    2.59137  -2.01551   0.84844 
 Bq                    2.78333  -2.01551   0.72314 
 Bq                    2.97528  -2.01551   0.58207 
 Bq                    3.16724  -2.01551   0.434 
 Bq                    3.35919  -2.01551   0.28632 
 Bq                    3.55114  -2.01551   0.13287 
 Bq                    3.7431   -2.01551  -0.04089 
 Bq                    3.93505  -2.01551  -0.23438 
 Bq                    4.127    -2.01551  -0.42834 
 Bq                    4.31896  -2.01551  -0.61977 
 Bq                    4.51091  -2.01551  -0.83274 
 Bq                    4.70286  -2.01551  -1.06791 
 Bq                   -4.70286  -1.82356  -1.86475 
 Bq                   -4.51091  -1.82356  -1.60281 
 Bq                   -4.31896  -1.82356  -1.36925 
 Bq                   -4.127    -1.82356  -1.14559 
 Bq                   -3.93505  -1.82356  -0.9159 
 Bq                   -3.7431   -1.82356  -0.69687 
 Bq                   -3.55114  -1.82356  -0.50161 
 Bq                   -3.35919  -1.82356  -0.3191 
 Bq                   -3.16724  -1.82356  -0.13626 
 Bq                   -2.97528  -1.82356   0.04386 
 Bq                   -2.78333  -1.82356   0.2103 
 Bq                   -2.59137  -1.82356   0.35861 
 Bq                   -2.39942  -1.82356   0.49313 
 Bq                   -2.20747  -1.82356   0.62028 
 Bq                   -2.01551  -1.82356   0.74285 
 Bq                   -1.82356  -1.82356   0.85955 
 Bq                   -1.63161  -1.82356   0.96749 
 Bq                   -1.43965  -1.82356   1.06444 
 Bq                   -1.2477   -1.82356   1.14959 
 Bq                   -1.05575  -1.82356   1.22322 
 Bq                   -0.86379  -1.82356   1.28603 
 Bq                   -0.67184  -1.82356   1.33866 
 Bq                   -0.47988  -1.82356   1.38147 
 Bq                   -0.28793  -1.82356   1.41458 
 Bq                   -0.09598  -1.82356   1.43796 
 Bq                    0.09598  -1.82356   1.45157 
 Bq                    0.28793  -1.82356   1.4554 
 Bq                    0.47988  -1.82356   1.44951 
 Bq                    0.67184  -1.82356   1.43392 
 Bq                    0.86379  -1.82356   1.40851 
 Bq                    1.05575  -1.82356   1.37292 
 Bq                    1.2477   -1.82356   1.32651 
 Bq                    1.43965  -1.82356   1.26858 
 Bq                    1.63161  -1.82356   1.19886 
 Bq                    1.82356  -1.82356   1.11814 
 Bq                    2.01551  -1.82356   1.02866 
 Bq                    2.20747  -1.82356   0.93332 
 Bq                    2.39942  -1.82356   0.8334 
 Bq                    2.59137  -1.82356   0.7261 
 Bq                    2.78333  -1.82356   0.60503 
 Bq                    2.97528  -1.82356   0.46582 
 Bq                    3.16724  -1.82356   0.31293 
 Bq                    3.35919  -1.82356   0.15732 
 Bq                    3.55114  -1.82356   0.00203 
 Bq                    3.7431   -1.82356  -0.16599 
 Bq                    3.93505  -1.82356  -0.3578 
 Bq                    4.127    -1.82356  -0.56026 
 Bq                    4.31896  -1.82356  -0.75669 
 Bq                    4.51091  -1.82356  -0.96303 
 Bq                    4.70286  -1.82356  -1.19774 
 Bq                   -4.70286  -1.63161  -1.91377 
 Bq                   -4.51091  -1.63161  -1.65962 
 Bq                   -4.31896  -1.63161  -1.4313 
 Bq                   -4.127    -1.63161  -1.20227 
 Bq                   -3.93505  -1.63161  -0.97125 
 Bq                   -3.7431   -1.63161  -0.75994 
 Bq                   -3.55114  -1.63161  -0.56992 
 Bq                   -3.35919  -1.63161  -0.38447 
 Bq                   -3.16724  -1.63161  -0.19775 
 Bq                   -2.97528  -1.63161  -0.01986 
 Bq                   -2.78333  -1.63161   0.13993 
 Bq                   -2.59137  -1.63161   0.28314 
 Bq                   -2.39942  -1.63161   0.41718 
 Bq                   -2.20747  -1.63161   0.54695 
 Bq                   -2.01551  -1.63161   0.67198 
 Bq                   -1.82356  -1.63161   0.78892 
 Bq                   -1.63161  -1.63161   0.89475 
 Bq                   -1.43965  -1.63161   0.9883 
 Bq                   -1.2477   -1.63161   1.06995 
 Bq                   -1.05575  -1.63161   1.14075 
 Bq                   -0.86379  -1.63161   1.20163 
 Bq                   -0.67184  -1.63161   1.25307 
 Bq                   -0.47988  -1.63161   1.2951 
 Bq                   -0.28793  -1.63161   1.32748 
 Bq                   -0.09598  -1.63161   1.34987 
 Bq                    0.09598  -1.63161   1.36205 
 Bq                    0.28793  -1.63161   1.36401 
 Bq                    0.47988  -1.63161   1.35598 
 Bq                    0.67184  -1.63161   1.3383 
 Bq                    0.86379  -1.63161   1.31121 
 Bq                    1.05575  -1.63161   1.27469 
 Bq                    1.2477   -1.63161   1.22824 
 Bq                    1.43965  -1.63161   1.17094 
 Bq                    1.63161  -1.63161   1.10176 
 Bq                    1.82356  -1.63161   1.02029 
 Bq                    2.01551  -1.63161   0.92771 
 Bq                    2.20747  -1.63161   0.82703 
 Bq                    2.39942  -1.63161   0.72163 
 Bq                    2.59137  -1.63161   0.61195 
 Bq                    2.78333  -1.63161   0.49311 
 Bq                    2.97528  -1.63161   0.35768 
 Bq                    3.16724  -1.63161   0.20415 
 Bq                    3.35919  -1.63161   0.04179 
 Bq                    3.55114  -1.63161  -0.11929 
 Bq                    3.7431   -1.63161  -0.28494 
 Bq                    3.93505  -1.63161  -0.47189 
 Bq                    4.127    -1.63161  -0.67856 
 Bq                    4.31896  -1.63161  -0.88322 
 Bq                    4.51091  -1.63161  -1.08718 
 Bq                    4.70286  -1.63161  -1.31697 
 Bq                   -4.70286  -1.43965  -1.95438 
 Bq                   -4.51091  -1.43965  -1.70886 
 Bq                   -4.31896  -1.43965  -1.48118 
 Bq                   -4.127    -1.43965  -1.2471 
 Bq                   -3.93505  -1.43965  -1.01899 
 Bq                   -3.7431   -1.43965  -0.81529 
 Bq                   -3.55114  -1.43965  -0.62659 
 Bq                   -3.35919  -1.43965  -0.43702 
 Bq                   -3.16724  -1.43965  -0.24938 
 Bq                   -2.97528  -1.43965  -0.07648 
 Bq                   -2.78333  -1.43965   0.07728 
 Bq                   -2.59137  -1.43965   0.21828 
 Bq                   -2.39942  -1.43965   0.35406 
 Bq                   -2.20747  -1.43965   0.48639 
 Bq                   -2.01551  -1.43965   0.61208 
 Bq                   -1.82356  -1.43965   0.72714 
 Bq                   -1.63161  -1.43965   0.82956 
 Bq                   -1.43965  -1.43965   0.9196 
 Bq                   -1.2477   -1.43965   0.99862 
 Bq                   -1.05575  -1.43965   1.068 
 Bq                   -0.86379  -1.43965   1.12853 
 Bq                   -0.67184  -1.43965   1.18032 
 Bq                   -0.47988  -1.43965   1.2229 
 Bq                   -0.28793  -1.43965   1.25555 
 Bq                   -0.09598  -1.43965   1.27748 
 Bq                    0.09598  -1.43965   1.28822 
 Bq                    0.28793  -1.43965   1.28777 
 Bq                    0.47988  -1.43965   1.27662 
 Bq                    0.67184  -1.43965   1.25552 
 Bq                    0.86379  -1.43965   1.22522 
 Bq                    1.05575  -1.43965   1.18618 
 Bq                    1.2477   -1.43965   1.13828 
 Bq                    1.43965  -1.43965   1.08075 
 Bq                    1.63161  -1.43965   1.01221 
 Bq                    1.82356  -1.43965   0.93128 
 Bq                    2.01551  -1.43965   0.83771 
 Bq                    2.20747  -1.43965   0.73352 
 Bq                    2.39942  -1.43965   0.62268 
 Bq                    2.59137  -1.43965   0.5084 
 Bq                    2.78333  -1.43965   0.3889 
 Bq                    2.97528  -1.43965   0.25664 
 Bq                    3.16724  -1.43965   0.10524 
 Bq                    3.35919  -1.43965  -0.06091 
 Bq                    3.55114  -1.43965  -0.22897 
 Bq                    3.7431   -1.43965  -0.39618 
 Bq                    3.93505  -1.43965  -0.57838 
 Bq                    4.127    -1.43965  -0.78499 
 Bq                    4.31896  -1.43965  -0.99758 
 Bq                    4.51091  -1.43965  -1.20377 
 Bq                    4.70286  -1.43965  -1.4278 
 Bq                   -4.70286  -1.2477   -1.9873 
 Bq                   -4.51091  -1.2477   -1.74872 
 Bq                   -4.31896  -1.2477   -1.51872 
 Bq                   -4.127    -1.2477   -1.28188 
 Bq                   -3.93505  -1.2477   -1.05923 
 Bq                   -3.7431   -1.2477   -0.86112 
 Bq                   -3.55114  -1.2477   -0.67102 
 Bq                   -3.35919  -1.2477   -0.47829 
 Bq                   -3.16724  -1.2477   -0.29255 
 Bq                   -2.97528  -1.2477   -0.12546 
 Bq                   -2.78333  -1.2477    0.02416 
 Bq                   -2.59137  -1.2477    0.16524 
 Bq                   -2.39942  -1.2477    0.30332 
 Bq                   -2.20747  -1.2477    0.43695 
 Bq                   -2.01551  -1.2477    0.56144 
 Bq                   -1.82356  -1.2477    0.6734 
 Bq                   -1.63161  -1.2477    0.77232 
 Bq                   -1.43965  -1.2477    0.85972 
 Bq                   -1.2477   -1.2477    0.93754 
 Bq                   -1.05575  -1.2477    1.00712 
 Bq                   -0.86379  -1.2477    1.06897 
 Bq                   -0.67184  -1.2477    1.12275 
 Bq                   -0.47988  -1.2477    1.1675 
 Bq                   -0.28793  -1.2477    1.20178 
 Bq                   -0.09598  -1.2477    1.22408 
 Bq                    0.09598  -1.2477    1.23339 
 Bq                    0.28793  -1.2477    1.22971 
 Bq                    0.47988  -1.2477    1.21405 
 Bq                    0.67184  -1.2477    1.18792 
 Bq                    0.86379  -1.2477    1.15276 
 Bq                    1.05575  -1.2477    1.10954 
 Bq                    1.2477   -1.2477    1.05857 
 Bq                    1.43965  -1.2477    0.99939 
 Bq                    1.63161  -1.2477    0.93061 
 Bq                    1.82356  -1.2477    0.85031 
 Bq                    2.01551  -1.2477    0.75699 
 Bq                    2.20747  -1.2477    0.65113 
 Bq                    2.39942  -1.2477    0.53612 
 Bq                    2.59137  -1.2477    0.41667 
 Bq                    2.78333  -1.2477    0.29423 
 Bq                    2.97528  -1.2477    0.16324 
 Bq                    3.16724  -1.2477    0.01478 
 Bq                    3.35919  -1.2477   -0.15232 
 Bq                    3.55114  -1.2477   -0.32642 
 Bq                    3.7431   -1.2477   -0.49789 
 Bq                    3.93505  -1.2477   -0.67737 
 Bq                    4.127    -1.2477   -0.88139 
 Bq                    4.31896  -1.2477   -1.0996 
 Bq                    4.51091  -1.2477   -1.31097 
 Bq                    4.70286  -1.2477   -1.53093 
 Bq                   -4.70286  -1.05575  -2.01216 
 Bq                   -4.51091  -1.05575  -1.77799 
 Bq                   -4.31896  -1.05575  -1.54469 
 Bq                   -4.127    -1.05575  -1.30769 
 Bq                   -3.93505  -1.05575  -1.09115 
 Bq                   -3.7431   -1.05575  -0.89623 
 Bq                   -3.55114  -1.05575  -0.70368 
 Bq                   -3.35919  -1.05575  -0.5096 
 Bq                   -3.16724  -1.05575  -0.32754 
 Bq                   -2.97528  -1.05575  -0.16567 
 Bq                   -2.78333  -1.05575  -0.01824 
 Bq                   -2.59137  -1.05575   0.12404 
 Bq                   -2.39942  -1.05575   0.26387 
 Bq                   -2.20747  -1.05575   0.39731 
 Bq                   -2.01551  -1.05575   0.51938 
 Bq                   -1.82356  -1.05575   0.62797 
 Bq                   -1.63161  -1.05575   0.72407 
 Bq                   -1.43965  -1.05575   0.81005 
 Bq                   -1.2477   -1.05575   0.88807 
 Bq                   -1.05575  -1.05575   0.95936 
 Bq                   -0.86379  -1.05575   1.02421 
 Bq                   -0.67184  -1.05575   1.08211 
 Bq                   -0.47988  -1.05575   1.1316 
 Bq                   -0.28793  -1.05575   1.17017 
 Bq                   -0.09598  -1.05575   1.19461 
 Bq                    0.09598  -1.05575   1.20248 
 Bq                    0.28793  -1.05575   1.1938 
 Bq                    0.47988  -1.05575   1.17099 
 Bq                    0.67184  -1.05575   1.13725 
 Bq                    0.86379  -1.05575   1.09511 
 Bq                    1.05575  -1.05575   1.04601 
 Bq                    1.2477   -1.05575   0.99048 
 Bq                    1.43965  -1.05575   0.92822 
 Bq                    1.63161  -1.05575   0.858 
 Bq                    1.82356  -1.05575   0.77766 
 Bq                    2.01551  -1.05575   0.68484 
 Bq                    2.20747  -1.05575   0.57853 
 Bq                    2.39942  -1.05575   0.46085 
 Bq                    2.59137  -1.05575   0.33679 
 Bq                    2.78333  -1.05575   0.21027 
 Bq                    2.97528  -1.05575   0.07861 
 Bq                    3.16724  -1.05575  -0.06749 
 Bq                    3.35919  -1.05575  -0.23378 
 Bq                    3.55114  -1.05575  -0.4121 
 Bq                    3.7431   -1.05575  -0.58889 
 Bq                    3.93505  -1.05575  -0.76803 
 Bq                    4.127    -1.05575  -0.96881 
 Bq                    4.31896  -1.05575  -1.19005 
 Bq                    4.51091  -1.05575  -1.40759 
 Bq                    4.70286  -1.05575  -1.62599 
 Bq                   -4.70286  -0.86379  -2.02814 
 Bq                   -4.51091  -0.86379  -1.79622 
 Bq                   -4.31896  -0.86379  -1.56002 
 Bq                   -4.127    -0.86379  -1.32482 
 Bq                   -3.93505  -0.86379  -1.1138 
 Bq                   -3.7431   -0.86379  -0.92023 
 Bq                   -3.55114  -0.86379  -0.72542 
 Bq                   -3.35919  -0.86379  -0.53169 
 Bq                   -3.16724  -0.86379  -0.35392 
 Bq                   -2.97528  -0.86379  -0.19612 
 Bq                   -2.78333  -0.86379  -0.04951 
 Bq                   -2.59137  -0.86379   0.09413 
 Bq                   -2.39942  -0.86379   0.23471 
 Bq                   -2.20747  -0.86379   0.36681 
 Bq                   -2.01551  -0.86379   0.48598 
 Bq                   -1.82356  -0.86379   0.59157 
 Bq                   -1.63161  -0.86379   0.68573 
 Bq                   -1.43965  -0.86379   0.77137 
 Bq                   -1.2477   -0.86379   0.8507 
 Bq                   -1.05575  -0.86379   0.925 
 Bq                   -0.86379  -0.86379   0.99486 
 Bq                   -0.67184  -0.86379   1.06021 
 Bq                   -0.47988  -0.86379   1.11964 
 Bq                   -0.28793  -0.86379   1.16885 
 Bq                   -0.09598  -0.86379   1.2002 
 Bq                    0.09598  -0.86379   1.20665 
 Bq                    0.28793  -0.86379   1.18819 
 Bq                    0.47988  -0.86379   1.15186 
 Bq                    0.67184  -0.86379   1.10532 
 Bq                    0.86379  -0.86379   1.05286 
 Bq                    1.05575  -0.86379   0.99589 
 Bq                    1.2477   -0.86379   0.93448 
 Bq                    1.43965  -0.86379   0.86805 
 Bq                    1.63161  -0.86379   0.7953 
 Bq                    1.82356  -0.86379   0.71403 
 Bq                    2.01551  -0.86379   0.62135 
 Bq                    2.20747  -0.86379   0.51507 
 Bq                    2.39942  -0.86379   0.39587 
 Bq                    2.59137  -0.86379   0.2682 
 Bq                    2.78333  -0.86379   0.13745 
 Bq                    2.97528  -0.86379   0.00375 
 Bq                    3.16724  -0.86379  -0.14115 
 Bq                    3.35919  -0.86379  -0.30603 
 Bq                    3.55114  -0.86379  -0.48685 
 Bq                    3.7431   -0.86379  -0.66877 
 Bq                    3.93505  -0.86379  -0.84943 
 Bq                    4.127    -0.86379  -1.04755 
 Bq                    4.31896  -0.86379  -1.26986 
 Bq                    4.51091  -0.86379  -1.49316 
 Bq                    4.70286  -0.86379  -1.71219 
 Bq                   -4.70286  -0.67184  -2.03453 
 Bq                   -4.51091  -0.67184  -1.80349 
 Bq                   -4.31896  -0.67184  -1.56544 
 Bq                   -4.127    -0.67184  -1.33304 
 Bq                   -3.93505  -0.67184  -1.12645 
 Bq                   -3.7431   -0.67184  -0.93324 
 Bq                   -3.55114  -0.67184  -0.73695 
 Bq                   -3.35919  -0.67184  -0.54474 
 Bq                   -3.16724  -0.67184  -0.37105 
 Bq                   -2.97528  -0.67184  -0.21618 
 Bq                   -2.78333  -0.67184  -0.06976 
 Bq                   -2.59137  -0.67184   0.07481 
 Bq                   -2.39942  -0.67184   0.21519 
 Bq                   -2.20747  -0.67184   0.34532 
 Bq                   -2.01551  -0.67184   0.46166 
 Bq                   -1.82356  -0.67184   0.56482 
 Bq                   -1.63161  -0.67184   0.6578 
 Bq                   -1.43965  -0.67184   0.74378 
 Bq                   -1.2477   -0.67184   0.8251 
 Bq                   -1.05575  -0.67184   0.90352 
 Bq                   -0.86379  -0.67184   0.98084 
 Bq                   -0.67184  -0.67184   1.05923 
 Bq                   -0.47988  -0.67184   1.13978 
 Bq                   -0.28793  -0.67184   1.21698 
 Bq                   -0.09598  -0.67184   1.27094 
 Bq                    0.09598  -0.67184   1.27595 
 Bq                    0.28793  -0.67184   1.23202 
 Bq                    0.47988  -0.67184   1.16484 
 Bq                    0.67184  -0.67184   1.09431 
 Bq                    0.86379  -0.67184   1.02594 
 Bq                    1.05575  -0.67184   0.95865 
 Bq                    1.2477   -0.67184   0.89026 
 Bq                    1.43965  -0.67184   0.81896 
 Bq                    1.63161  -0.67184   0.74301 
 Bq                    1.82356  -0.67184   0.66006 
 Bq                    2.01551  -0.67184   0.56693 
 Bq                    2.20747  -0.67184   0.46063 
 Bq                    2.39942  -0.67184   0.34053 
 Bq                    2.59137  -0.67184   0.21019 
 Bq                    2.78333  -0.67184   0.07565 
 Bq                    2.97528  -0.67184  -0.06074 
 Bq                    3.16724  -0.67184  -0.20557 
 Bq                    3.35919  -0.67184  -0.36923 
 Bq                    3.55114  -0.67184  -0.5514 
 Bq                    3.7431   -0.67184  -0.73766 
 Bq                    3.93505  -0.67184  -0.92083 
 Bq                    4.127    -0.67184  -1.11738 
 Bq                    4.31896  -0.67184  -1.33975 
 Bq                    4.51091  -0.67184  -1.56777 
 Bq                    4.70286  -0.67184  -1.78878 
 Bq                   -4.70286  -0.47988  -2.0308 
 Bq                   -4.51091  -0.47988  -1.80012 
 Bq                   -4.31896  -0.47988  -1.56132 
 Bq                   -4.127    -0.47988  -1.33194 
 Bq                   -3.93505  -0.47988  -1.12872 
 Bq                   -3.7431   -0.47988  -0.9356 
 Bq                   -3.55114  -0.47988  -0.73876 
 Bq                   -3.35919  -0.47988  -0.54859 
 Bq                   -3.16724  -0.47988  -0.3784 
 Bq                   -2.97528  -0.47988  -0.22564 
 Bq                   -2.78333  -0.47988  -0.07933 
 Bq                   -2.59137  -0.47988   0.06552 
 Bq                   -2.39942  -0.47988   0.20503 
 Bq                   -2.20747  -0.47988   0.33302 
 Bq                   -2.01551  -0.47988   0.44684 
 Bq                   -1.82356  -0.47988   0.54809 
 Bq                   -1.63161  -0.47988   0.64029 
 Bq                   -1.43965  -0.47988   0.72683 
 Bq                   -1.2477   -0.47988   0.81031 
 Bq                   -1.05575  -0.47988   0.89347 
 Bq                   -0.86379  -0.47988   0.98073 
 Bq                   -0.67184  -0.47988   1.08025 
 Bq                   -0.47988  -0.47988   1.20496 
 Bq                   -0.28793  -0.47988   1.36251 
 Bq                   -0.09598  -0.47988   1.50577 
 Bq                    0.09598  -0.47988   1.50935 
 Bq                    0.28793  -0.47988   1.37325 
 Bq                    0.47988  -0.47988   1.22285 
 Bq                    0.67184  -0.47988   1.1053 
 Bq                    0.86379  -0.47988   1.01294 
 Bq                    1.05575  -0.47988   0.93284 
 Bq                    1.2477   -0.47988   0.85684 
 Bq                    1.43965  -0.47988   0.78052 
 Bq                    1.63161  -0.47988   0.70115 
 Bq                    1.82356  -0.47988   0.61611 
 Bq                    2.01551  -0.47988   0.52203 
 Bq                    2.20747  -0.47988   0.41537 
 Bq                    2.39942  -0.47988   0.29454 
 Bq                    2.59137  -0.47988   0.16221 
 Bq                    2.78333  -0.47988   0.02453 
 Bq                    2.97528  -0.47988  -0.11462 
 Bq                    3.16724  -0.47988  -0.2602 
 Bq                    3.35919  -0.47988  -0.42323 
 Bq                    3.55114  -0.47988  -0.60623 
 Bq                    3.7431   -0.47988  -0.79589 
 Bq                    3.93505  -0.47988  -0.98185 
 Bq                    4.127    -0.47988  -1.1779 
 Bq                    4.31896  -0.47988  -1.40011 
 Bq                    4.51091  -0.47988  -1.63175 
 Bq                    4.70286  -0.47988  -1.85526 
 Bq                   -4.70286  -0.28793  -2.0167 
 Bq                   -4.51091  -0.28793  -1.78644 
 Bq                   -4.31896  -0.28793  -1.54782 
 Bq                   -4.127    -0.28793  -1.32117 
 Bq                   -3.93505  -0.28793  -1.12046 
 Bq                   -3.7431   -0.28793  -0.92765 
 Bq                   -3.55114  -0.28793  -0.73108 
 Bq                   -3.35919  -0.28793  -0.54299 
 Bq                   -3.16724  -0.28793  -0.37559 
 Bq                   -2.97528  -0.28793  -0.22448 
 Bq                   -2.78333  -0.28793  -0.07857 
 Bq                   -2.59137  -0.28793   0.06591 
 Bq                   -2.39942  -0.28793   0.20418 
 Bq                   -2.20747  -0.28793   0.33014 
 Bq                   -2.01551  -0.28793   0.44184 
 Bq                   -1.82356  -0.28793   0.5415 
 Bq                   -1.63161  -0.28793   0.63298 
 Bq                   -1.43965  -0.28793   0.71977 
 Bq                   -1.2477   -0.28793   0.8049 
 Bq                   -1.05575  -0.28793   0.89235 
 Bq                   -0.86379  -0.28793   0.99024 
 Bq                   -0.67184  -0.28793   1.11775 
 Bq                   -0.47988  -0.28793   1.32281 
 Bq                   -0.28793  -0.28793   1.72066 
 Bq                   -0.09598  -0.28793   2.37499 
 Bq                    0.09598  -0.28793   2.37714 
 Bq                    0.28793  -0.28793   1.7271 
 Bq                    0.47988  -0.28793   1.33354 
 Bq                    0.67184  -0.28793   1.13277 
 Bq                    0.86379  -0.28793   1.00956 
 Bq                    1.05575  -0.28793   0.91595 
 Bq                    1.2477   -0.28793   0.8328 
 Bq                    1.43965  -0.28793   0.75197 
 Bq                    1.63161  -0.28793   0.66947 
 Bq                    1.82356  -0.28793   0.5823 
 Bq                    2.01551  -0.28793   0.48693 
 Bq                    2.20747  -0.28793   0.37954 
 Bq                    2.39942  -0.28793   0.25787 
 Bq                    2.59137  -0.28793   0.12391 
 Bq                    2.78333  -0.28793  -0.01627 
 Bq                    2.97528  -0.28793  -0.15787 
 Bq                    3.16724  -0.28793  -0.30467 
 Bq                    3.35919  -0.28793  -0.46778 
 Bq                    3.55114  -0.28793  -0.65156 
 Bq                    3.7431   -0.28793  -0.84383 
 Bq                    3.93505  -0.28793  -1.03233 
 Bq                    4.127    -0.28793  -1.22874 
 Bq                    4.31896  -0.28793  -1.4511 
 Bq                    4.51091  -0.28793  -1.68542 
 Bq                    4.70286  -0.28793  -1.91138 
 Bq                   -4.70286  -0.09598  -1.99213 
 Bq                   -4.51091  -0.09598  -1.76271 
 Bq                   -4.31896  -0.09598  -1.52497 
 Bq                   -4.127    -0.09598  -1.30046 
 Bq                   -3.93505  -0.09598  -1.10164 
 Bq                   -3.7431   -0.09598  -0.90965 
 Bq                   -3.55114  -0.09598  -0.71398 
 Bq                   -3.35919  -0.09598  -0.52772 
 Bq                   -3.16724  -0.09598  -0.36241 
 Bq                   -2.97528  -0.09598  -0.21278 
 Bq                   -2.78333  -0.09598  -0.06775 
 Bq                   -2.59137  -0.09598   0.07581 
 Bq                   -2.39942  -0.09598   0.21268 
 Bq                   -2.20747  -0.09598   0.33688 
 Bq                   -2.01551  -0.09598   0.44682 
 Bq                   -1.82356  -0.09598   0.54503 
 Bq                   -1.63161  -0.09598   0.63551 
 Bq                   -1.43965  -0.09598   0.72185 
 Bq                   -1.2477   -0.09598   0.80735 
 Bq                   -1.05575  -0.09598   0.89693 
 Bq                   -0.86379  -0.09598   1.00174 
 Bq                   -0.67184  -0.09598   1.15185 
 Bq                   -0.47988  -0.09598   1.44622 
 Bq                   -0.28793  -0.09598   2.35514 
 Bq                   -0.09598  -0.09598   8.16527 
 Bq                    0.09598  -0.09598   8.16598 
 Bq                    0.28793  -0.09598   2.35728 
 Bq                    0.47988  -0.09598   1.44978 
 Bq                    0.67184  -0.09598   1.15684 
 Bq                    0.86379  -0.09598   1.00816 
 Bq                    1.05575  -0.09598   0.90477 
 Bq                    1.2477   -0.09598   0.81662 
 Bq                    1.43965  -0.09598   0.73256 
 Bq                    1.63161  -0.09598   0.64765 
 Bq                    1.82356  -0.09598   0.5586 
 Bq                    2.01551  -0.09598   0.46182 
 Bq                    2.20747  -0.09598   0.35332 
 Bq                    2.39942  -0.09598   0.23055 
 Bq                    2.59137  -0.09598   0.09512 
 Bq                    2.78333  -0.09598  -0.047 
 Bq                    2.97528  -0.09598  -0.19059 
 Bq                    3.16724  -0.09598  -0.33878 
 Bq                    3.35919  -0.09598  -0.50266 
 Bq                    3.55114  -0.09598  -0.68748 
 Bq                    3.7431   -0.09598  -0.88171 
 Bq                    3.93505  -0.09598  -1.07227 
 Bq                    4.127    -0.09598  -1.26964 
 Bq                    4.31896  -0.09598  -1.49272 
 Bq                    4.51091  -0.09598  -1.72903 
 Bq                    4.70286  -0.09598  -1.95701 
 Bq                   -4.70286   0.09598  -1.95704 
 Bq                   -4.51091   0.09598  -1.72906 
 Bq                   -4.31896   0.09598  -1.49275 
 Bq                   -4.127     0.09598  -1.26967 
 Bq                   -3.93505   0.09598  -1.07229 
 Bq                   -3.7431    0.09598  -0.88173 
 Bq                   -3.55114   0.09598  -0.68749 
 Bq                   -3.35919   0.09598  -0.50267 
 Bq                   -3.16724   0.09598  -0.33879 
 Bq                   -2.97528   0.09598  -0.19058 
 Bq                   -2.78333   0.09598  -0.04699 
 Bq                   -2.59137   0.09598   0.09514 
 Bq                   -2.39942   0.09598   0.23057 
 Bq                   -2.20747   0.09598   0.35334 
 Bq                   -2.01551   0.09598   0.46185 
 Bq                   -1.82356   0.09598   0.55862 
 Bq                   -1.63161   0.09598   0.64767 
 Bq                   -1.43965   0.09598   0.73258 
 Bq                   -1.2477    0.09598   0.81664 
 Bq                   -1.05575   0.09598   0.90479 
 Bq                   -0.86379   0.09598   1.00817 
 Bq                   -0.67184   0.09598   1.15685 
 Bq                   -0.47988   0.09598   1.44978 
 Bq                   -0.28793   0.09598   2.35727 
 Bq                   -0.09598   0.09598   8.16597 
 Bq                    0.09598   0.09598   8.16525 
 Bq                    0.28793   0.09598   2.35511 
 Bq                    0.47988   0.09598   1.44618 
 Bq                    0.67184   0.09598   1.15181 
 Bq                    0.86379   0.09598   1.00169 
 Bq                    1.05575   0.09598   0.89687 
 Bq                    1.2477    0.09598   0.80729 
 Bq                    1.43965   0.09598   0.7218 
 Bq                    1.63161   0.09598   0.63545 
 Bq                    1.82356   0.09598   0.54497 
 Bq                    2.01551   0.09598   0.44676 
 Bq                    2.20747   0.09598   0.33683 
 Bq                    2.39942   0.09598   0.21263 
 Bq                    2.59137   0.09598   0.07576 
 Bq                    2.78333   0.09598  -0.06779 
 Bq                    2.97528   0.09598  -0.21281 
 Bq                    3.16724   0.09598  -0.36244 
 Bq                    3.35919   0.09598  -0.52775 
 Bq                    3.55114   0.09598  -0.714 
 Bq                    3.7431    0.09598  -0.90967 
 Bq                    3.93505   0.09598  -1.10166 
 Bq                    4.127     0.09598  -1.30046 
 Bq                    4.31896   0.09598  -1.52498 
 Bq                    4.51091   0.09598  -1.76272 
 Bq                    4.70286   0.09598  -1.99213 
 Bq                   -4.70286   0.28793  -1.91144 
 Bq                   -4.51091   0.28793  -1.68548 
 Bq                   -4.31896   0.28793  -1.45116 
 Bq                   -4.127     0.28793  -1.2288 
 Bq                   -3.93505   0.28793  -1.03239 
 Bq                   -3.7431    0.28793  -0.84388 
 Bq                   -3.55114   0.28793  -0.65161 
 Bq                   -3.35919   0.28793  -0.46782 
 Bq                   -3.16724   0.28793  -0.30471 
 Bq                   -2.97528   0.28793  -0.15791 
 Bq                   -2.78333   0.28793  -0.01629 
 Bq                   -2.59137   0.28793   0.12389 
 Bq                   -2.39942   0.28793   0.25786 
 Bq                   -2.20747   0.28793   0.37952 
 Bq                   -2.01551   0.28793   0.48692 
 Bq                   -1.82356   0.28793   0.58229 
 Bq                   -1.63161   0.28793   0.66946 
 Bq                   -1.43965   0.28793   0.75196 
 Bq                   -1.2477    0.28793   0.83279 
 Bq                   -1.05575   0.28793   0.91594 
 Bq                   -0.86379   0.28793   1.00954 
 Bq                   -0.67184   0.28793   1.13274 
 Bq                   -0.47988   0.28793   1.33351 
 Bq                   -0.28793   0.28793   1.72706 
 Bq                   -0.09598   0.28793   2.37709 
 Bq                    0.09598   0.28793   2.37494 
 Bq                    0.28793   0.28793   1.7206 
 Bq                    0.47988   0.28793   1.32274 
 Bq                    0.67184   0.28793   1.11767 
 Bq                    0.86379   0.28793   0.99016 
 Bq                    1.05575   0.28793   0.89226 
 Bq                    1.2477    0.28793   0.80481 
 Bq                    1.43965   0.28793   0.71968 
 Bq                    1.63161   0.28793   0.63288 
 Bq                    1.82356   0.28793   0.54141 
 Bq                    2.01551   0.28793   0.44175 
 Bq                    2.20747   0.28793   0.33005 
 Bq                    2.39942   0.28793   0.20409 
 Bq                    2.59137   0.28793   0.06583 
 Bq                    2.78333   0.28793  -0.07865 
 Bq                    2.97528   0.28793  -0.22455 
 Bq                    3.16724   0.28793  -0.37565 
 Bq                    3.35919   0.28793  -0.54305 
 Bq                    3.55114   0.28793  -0.73113 
 Bq                    3.7431    0.28793  -0.9277 
 Bq                    3.93505   0.28793  -1.12051 
 Bq                    4.127     0.28793  -1.32122 
 Bq                    4.31896   0.28793  -1.54787 
 Bq                    4.51091   0.28793  -1.78648 
 Bq                    4.70286   0.28793  -2.01674 
 Bq                   -4.70286   0.47988  -1.85536 
 Bq                   -4.51091   0.47988  -1.63184 
 Bq                   -4.31896   0.47988  -1.40021 
 Bq                   -4.127     0.47988  -1.178 
 Bq                   -3.93505   0.47988  -0.98194 
 Bq                   -3.7431    0.47988  -0.79598 
 Bq                   -3.55114   0.47988  -0.60631 
 Bq                   -3.35919   0.47988  -0.4233 
 Bq                   -3.16724   0.47988  -0.26027 
 Bq                   -2.97528   0.47988  -0.11468 
 Bq                   -2.78333   0.47988   0.02447 
 Bq                   -2.59137   0.47988   0.16215 
 Bq                   -2.39942   0.47988   0.2945 
 Bq                   -2.20747   0.47988   0.41532 
 Bq                   -2.01551   0.47988   0.52198 
 Bq                   -1.82356   0.47988   0.61606 
 Bq                   -1.63161   0.47988   0.70111 
 Bq                   -1.43965   0.47988   0.78047 
 Bq                   -1.2477    0.47988   0.8568 
 Bq                   -1.05575   0.47988   0.93279 
 Bq                   -0.86379   0.47988   1.01289 
 Bq                   -0.67184   0.47988   1.10524 
 Bq                   -0.47988   0.47988   1.22278 
 Bq                   -0.28793   0.47988   1.37317 
 Bq                   -0.09598   0.47988   1.50927 
 Bq                    0.09598   0.47988   1.50568 
 Bq                    0.28793   0.47988   1.36242 
 Bq                    0.47988   0.47988   1.20486 
 Bq                    0.67184   0.47988   1.08014 
 Bq                    0.86379   0.47988   0.98062 
 Bq                    1.05575   0.47988   0.89336 
 Bq                    1.2477    0.47988   0.81019 
 Bq                    1.43965   0.47988   0.7267 
 Bq                    1.63161   0.47988   0.64017 
 Bq                    1.82356   0.47988   0.54796 
 Bq                    2.01551   0.47988   0.44672 
 Bq                    2.20747   0.47988   0.3329 
 Bq                    2.39942   0.47988   0.20491 
 Bq                    2.59137   0.47988   0.06541 
 Bq                    2.78333   0.47988  -0.07944 
 Bq                    2.97528   0.47988  -0.22575 
 Bq                    3.16724   0.47988  -0.3785 
 Bq                    3.35919   0.47988  -0.54869 
 Bq                    3.55114   0.47988  -0.73885 
 Bq                    3.7431    0.47988  -0.93568 
 Bq                    3.93505   0.47988  -1.1288 
 Bq                    4.127     0.47988  -1.33202 
 Bq                    4.31896   0.47988  -1.56139 
 Bq                    4.51091   0.47988  -1.80019 
 Bq                    4.70286   0.47988  -2.03087 
 Bq                   -4.70286   0.67184  -1.7889 
 Bq                   -4.51091   0.67184  -1.5679 
 Bq                   -4.31896   0.67184  -1.33987 
 Bq                   -4.127     0.67184  -1.1175 
 Bq                   -3.93505   0.67184  -0.92095 
 Bq                   -3.7431    0.67184  -0.73777 
 Bq                   -3.55114   0.67184  -0.55151 
 Bq                   -3.35919   0.67184  -0.36933 
 Bq                   -3.16724   0.67184  -0.20567 
 Bq                   -2.97528   0.67184  -0.06083 
 Bq                   -2.78333   0.67184   0.07557 
 Bq                   -2.59137   0.67184   0.2101 
 Bq                   -2.39942   0.67184   0.34045 
 Bq                   -2.20747   0.67184   0.46055 
 Bq                   -2.01551   0.67184   0.56686 
 Bq                   -1.82356   0.67184   0.65999 
 Bq                   -1.63161   0.67184   0.74294 
 Bq                   -1.43965   0.67184   0.81889 
 Bq                   -1.2477    0.67184   0.89019 
 Bq                   -1.05575   0.67184   0.95857 
 Bq                   -0.86379   0.67184   1.02586 
 Bq                   -0.67184   0.67184   1.09423 
 Bq                   -0.47988   0.67184   1.16475 
 Bq                   -0.28793   0.67184   1.23191 
 Bq                   -0.09598   0.67184   1.27584 
 Bq                    0.09598   0.67184   1.27082 
 Bq                    0.28793   0.67184   1.21686 
 Bq                    0.47988   0.67184   1.13965 
[...]
 8168,-0.01874236\Bq,0,-4.31895728,2.97528168,0.17557011\Bq,0,-4.127003
 63,2.97528168,0.37180543\Bq,0,-3.93504997,2.97528168,0.56900503\Bq,0,-
 3.74309631,2.97528168,0.74547465\Bq,0,-3.55114265,2.97528168,0.9014274
 5\Bq,0,-3.359189,2.97528168,1.05383495\Bq,0,-3.16723534,2.97528168,1.2
 0722451\Bq,0,-2.97528168,2.97528168,1.35077929\Bq,0,-2.78332803,2.9752
 8168,1.47579896\Bq,0,-2.59137437,2.97528168,1.5846232\Bq,0,-2.39942071
 ,2.97528168,1.68483429\Bq,0,-2.20746706,2.97528168,1.78087597\Bq,0,-2.
 0155134,2.97528168,1.87177948\Bq,0,-1.82355974,2.97528168,1.95393615\B
 q,0,-1.63160608,2.97528168,2.0243712\Bq,0,-1.43965243,2.97528168,2.082
 06662\Bq,0,-1.24769877,2.97528168,2.1275596\Bq,0,-1.05574511,2.9752816
 8,2.16198043\Bq,0,-0.86379146,2.97528168,2.18633429\Bq,0,-0.6718378,2.
 97528168,2.20122502\Bq,0,-0.47988414,2.97528168,2.20688517\Bq,0,-0.287
 93049,2.97528168,2.20332271\Bq,0,-0.09597683,2.97528168,2.19046442\Bq,
 0,0.09597683,2.97528168,2.16825144\Bq,0,0.28793049,2.97528168,2.136683
 9\Bq,0,0.47988414,2.97528168,2.09582088\Bq,0,0.6718378,2.97528168,2.04
 573583\Bq,0,0.86379146,2.97528168,1.98642098\Bq,0,1.05574511,2.9752816
 8,1.91764396\Bq,0,1.24769877,2.97528168,1.83880106\Bq,0,1.43965243,2.9
 7528168,1.74888721\Bq,0,1.63160608,2.97528168,1.64677215\Bq,0,1.823559
 74,2.97528168,1.53191872\Bq,0,2.0155134,2.97528168,1.40534489\Bq,0,2.2
 0746706,2.97528168,1.27002536\Bq,0,2.39942071,2.97528168,1.12956866\Bq
 ,0,2.59137437,2.97528168,0.98494341\Bq,0,2.78332803,2.97528168,0.83170
 566\Bq,0,2.97528168,2.97528168,0.66227292\Bq,0,3.16723534,2.97528168,0
 .47430528\Bq,0,3.359189,2.97528168,0.27650282\Bq,0,3.55114265,2.975281
 68,0.07968215\Bq,0,3.74309631,2.97528168,-0.12068431\Bq,0,3.93504997,2
 .97528168,-0.34156831\Bq,0,4.12700363,2.97528168,-0.58318317\Bq,0,4.31
 895728,2.97528168,-0.82383481\Bq,0,4.51091094,2.97528168,-1.06256476\B
 q,0,4.7028646,2.97528168,-1.32615095\Bq,0,-4.7028646,3.16723534,-0.053
 09887\Bq,0,-4.51091094,3.16723534,0.17395068\Bq,0,-4.31895728,3.167235
 34,0.37512484\Bq,0,-4.12700363,3.16723534,0.55930912\Bq,0,-3.93504997,
 3.16723534,0.74852595\Bq,0,-3.74309631,3.16723534,0.93326495\Bq,0,-3.5
 5114265,3.16723534,1.09572992\Bq,0,-3.359189,3.16723534,1.24063335\Bq,
 0,-3.16723534,3.16723534,1.38284702\Bq,0,-2.97528168,3.16723534,1.5247
 2013\Bq,0,-2.78332803,3.16723534,1.65669238\Bq,0,-2.59137437,3.1672353
 4,1.77132857\Bq,0,-2.39942071,3.16723534,1.86993691\Bq,0,-2.20746706,3
 .16723534,1.95845713\Bq,0,-2.0155134,3.16723534,2.04119836\Bq,0,-1.823
 55974,3.16723534,2.11854086\Bq,0,-1.63160608,3.16723534,2.18833336\Bq,
 0,-1.43965243,3.16723534,2.24815229\Bq,0,-1.24769877,3.16723534,2.2965
 8769\Bq,0,-1.05574511,3.16723534,2.33337043\Bq,0,-0.86379146,3.1672353
 4,2.35892407\Bq,0,-0.6718378,3.16723534,2.37388007\Bq,0,-0.47988414,3.
 16723534,2.37878666\Bq,0,-0.28793049,3.16723534,2.37401221\Bq,0,-0.095
 97683,3.16723534,2.35975963\Bq,0,0.09597683,3.16723534,2.3361138\Bq,0,
 0.28793049,3.16723534,2.30307483\Bq,0,0.47988414,3.16723534,2.2605581\
 Bq,0,0.6718378,3.16723534,2.2083609\Bq,0,0.86379146,3.16723534,2.14611
 507\Bq,0,1.05574511,3.16723534,2.07327256\Bq,0,1.24769877,3.16723534,1
 .98920205\Bq,0,1.43965243,3.16723534,1.89348007\Bq,0,1.63160608,3.1672
 3534,1.7863758\Bq,0,1.82355974,3.16723534,1.66929922\Bq,0,2.0155134,3.
 16723534,1.54467385\Bq,0,2.20746706,3.16723534,1.41465089\Bq,0,2.39942
 071,3.16723534,1.27884994\Bq,0,2.59137437,3.16723534,1.13296172\Bq,0,2
 .78332803,3.16723534,0.97104632\Bq,0,2.97528168,3.16723534,0.7917953\B
 q,0,3.16723534,3.16723534,0.60264362\Bq,0,3.359189,3.16723534,0.413151
 34\Bq,0,3.55114265,3.16723534,0.22096905\Bq,0,3.74309631,3.16723534,0.
 0112247\Bq,0,3.93504997,3.16723534,-0.22079439\Bq,0,4.12700363,3.16723
 534,-0.45729219\Bq,0,4.31895728,3.16723534,-0.6887585\Bq,0,4.51091094,
 3.16723534,-0.93721585\Bq,0,4.7028646,3.16723534,-1.21154981\Bq,0,-4.7
 028646,3.359189,0.14834172\Bq,0,-4.51091094,3.359189,0.3674585\Bq,0,-4
 .31895728,3.359189,0.58057328\Bq,0,-4.12700363,3.359189,0.76644157\Bq,
 0,-3.93504997,3.359189,0.94158655\Bq,0,-3.74309631,3.359189,1.1216104\
 Bq,0,-3.55114265,3.359189,1.29376021\Bq,0,-3.359189,3.359189,1.4439310
 7\Bq,0,-3.16723534,3.359189,1.57797069\Bq,0,-2.97528168,3.359189,1.708
 66792\Bq,0,-2.78332803,3.359189,1.83824055\Bq,0,-2.59137437,3.359189,1
 .95905957\Bq,0,-2.39942071,3.359189,2.06427301\Bq,0,-2.20746706,3.3591
 89,2.15351985\Bq,0,-2.0155134,3.359189,2.23085157\Bq,0,-1.82355974,3.3
 59189,2.30026179\Bq,0,-1.63160608,3.359189,2.36330655\Bq,0,-1.43965243
 ,3.359189,2.41933711\Bq,0,-1.24769877,3.359189,2.46681876\Bq,0,-1.0557
 4511,3.359189,2.50440897\Bq,0,-0.86379146,3.359189,2.53137951\Bq,0,-0.
 6718378,3.359189,2.54755862\Bq,0,-0.47988414,3.359189,2.55309547\Bq,0,
 -0.28793049,3.359189,2.5482418\Bq,0,-0.09597683,3.359189,2.53321561\Bq
 ,0,0.09597683,3.359189,2.50813693\Bq,0,0.28793049,3.359189,2.47300587\
 Bq,0,0.47988414,3.359189,2.42770264\Bq,0,0.6718378,3.359189,2.37200948
 \Bq,0,0.86379146,3.359189,2.30567483\Bq,0,1.05574511,3.359189,2.228549
 72\Bq,0,1.24769877,3.359189,2.14080602\Bq,0,1.43965243,3.359189,2.0431
 7209\Bq,0,1.63160608,3.359189,1.93699048\Bq,0,1.82355974,3.359189,1.82
 379592\Bq,0,2.0155134,3.359189,1.70423713\Bq,0,2.20746706,3.359189,1.5
 7675797\Bq,0,2.39942071,3.359189,1.4373647\Bq,0,2.59137437,3.359189,1.
 28200567\Bq,0,2.78332803,3.359189,1.11104173\Bq,0,2.97528168,3.359189,
 0.93132461\Bq,0,3.16723534,3.359189,0.75048312\Bq,0,3.359189,3.359189,
 0.56629919\Bq,0,3.55114265,3.359189,0.36598374\Bq,0,3.74309631,3.35918
 9,0.14368886\Bq,0,3.93504997,3.359189,-0.08648078\Bq,0,4.12700363,3.35
 9189,-0.31177245\Bq,0,4.31895728,3.359189,-0.54778848\Bq,0,4.51091094,
 3.359189,-0.81105215\Bq,0,4.7028646,3.359189,-1.08031905\Bq,0,-4.70286
 46,3.55114265,0.37019726\Bq,0,-4.51091094,3.55114265,0.57311205\Bq,0,-
 4.31895728,3.55114265,0.78440738\Bq,0,-4.12700363,3.55114265,0.9830924
 4\Bq,0,-3.93504997,3.55114265,1.1559578\Bq,0,-3.74309631,3.55114265,1.
 32148943\Bq,0,-3.55114265,3.55114265,1.49072183\Bq,0,-3.359189,3.55114
 265,1.65093841\Bq,0,-3.16723534,3.55114265,1.79024547\Bq,0,-2.97528168
 ,3.55114265,1.91343861\Bq,0,-2.78332803,3.55114265,2.03154614\Bq,0,-2.
 59137437,3.55114265,2.14789873\Bq,0,-2.39942071,3.55114265,2.25733204\
 Bq,0,-2.20746706,3.55114265,2.35359413\Bq,0,-2.0155134,3.55114265,2.43
 457534\Bq,0,-1.82355974,3.55114265,2.50214628\Bq,0,-1.63160608,3.55114
 265,2.55939418\Bq,0,-1.43965243,3.55114265,2.60844528\Bq,0,-1.24769877
 ,3.55114265,2.64989121\Bq,0,-1.05574511,3.55114265,2.68326392\Bq,0,-0.
 86379146,3.55114265,2.70773033\Bq,0,-0.6718378,3.55114265,2.72255521\B
 q,0,-0.47988414,3.55114265,2.72726649\Bq,0,-0.28793049,3.55114265,2.72
 163194\Bq,0,-0.09597683,3.55114265,2.70556817\Bq,0,0.09597683,3.551142
 65,2.67905663\Bq,0,0.28793049,3.55114265,2.64209744\Bq,0,0.47988414,3.
 55114265,2.5947094\Bq,0,0.6718378,3.55114265,2.53697609\Bq,0,0.8637914
 6,3.55114265,2.46912997\Bq,0,1.05574511,3.55114265,2.39164328\Bq,0,1.2
 4769877,3.55114265,2.30525137\Bq,0,1.43965243,3.55114265,2.21078745\Bq
 ,0,1.63160608,3.55114265,2.10871959\Bq,0,1.82355974,3.55114265,1.99845
 619\Bq,0,2.0155134,3.55114265,1.87787097\Bq,0,2.20746706,3.55114265,1.
 74387662\Bq,0,2.39942071,3.55114265,1.59460239\Bq,0,2.59137437,3.55114
 265,1.43215779\Bq,0,2.78332803,3.55114265,1.26279456\Bq,0,2.97528168,3
 .55114265,1.09167685\Bq,0,3.16723534,3.55114265,0.91547372\Bq,0,3.3591
 89,3.55114265,0.72315665\Bq,0,3.55114265,3.55114265,0.50992978\Bq,0,3.
 74309631,3.55114265,0.28768659\Bq,0,3.93504997,3.55114265,0.06914347\B
 q,0,4.12700363,3.55114265,-0.15673429\Bq,0,4.31895728,3.55114265,-0.40
 843279\Bq,0,4.51091094,3.55114265,-0.67274272\Bq,0,4.7028646,3.5511426
 5,-0.92867335\Bq,0,-4.7028646,3.74309631,0.59986366\Bq,0,-4.51091094,3
 .74309631,0.80120662\Bq,0,-4.31895728,3.74309631,0.99604068\Bq,0,-4.12
 700363,3.74309631,1.19723266\Bq,0,-3.93504997,3.74309631,1.38252498\Bq
 ,0,-3.74309631,3.74309631,1.54376606\Bq,0,-3.55114265,3.74309631,1.698
 50766\Bq,0,-3.359189,3.74309631,1.85580683\Bq,0,-3.16723534,3.74309631
 ,2.00479873\Bq,0,-2.97528168,3.74309631,2.13450405\Bq,0,-2.78332803,3.
 74309631,2.24727029\Bq,0,-2.59137437,3.74309631,2.35224793\Bq,0,-2.399
 42071,3.74309631,2.45426875\Bq,0,-2.20746706,3.74309631,2.55112023\Bq,
 0,-2.0155134,3.74309631,2.63782926\Bq,0,-1.82355974,3.74309631,2.71113
 465\Bq,0,-1.63160608,3.74309631,2.77075553\Bq,0,-1.43965243,3.74309631
 ,2.81824971\Bq,0,-1.24769877,3.74309631,2.85543554\Bq,0,-1.05574511,3.
 74309631,2.88349403\Bq,0,-0.86379146,3.74309631,2.90282869\Bq,0,-0.671
 8378,3.74309631,2.91331641\Bq,0,-0.47988414,3.74309631,2.91461566\Bq,0
 ,-0.28793049,3.74309631,2.90637857\Bq,0,-0.09597683,3.74309631,2.88835
 192\Bq,0,0.09597683,3.74309631,2.86040753\Bq,0,0.28793049,3.74309631,2
 .82254552\Bq,0,0.47988414,3.74309631,2.77489429\Bq,0,0.6718378,3.74309
 631,2.71770731\Bq,0,0.86379146,3.74309631,2.65133264\Bq,0,1.05574511,3
 .74309631,2.576112\Bq,0,1.24769877,3.74309631,2.49216861\Bq,0,1.439652
 43,3.74309631,2.39909907\Bq,0,1.63160608,3.74309631,2.29572244\Bq,0,1.
 82355974,3.74309631,2.18022034\Bq,0,2.0155134,3.74309631,2.05103496\Bq
 ,0,2.20746706,3.74309631,1.90844708\Bq,0,2.39942071,3.74309631,1.75571
 775\Bq,0,2.59137437,3.74309631,1.59781994\Bq,0,2.78332803,3.74309631,1
 .43696596\Bq,0,2.97528168,3.74309631,1.26832382\Bq,0,3.16723534,3.7430
 9631,1.08274281\Bq,0,3.359189,3.74309631,0.87787519\Bq,0,3.55114265,3.
 74309631,0.66470002\Bq,0,3.74309631,3.74309631,0.45408193\Bq,0,3.93504
 997,3.74309631,0.23696364\Bq,0,4.12700363,3.74309631,-0.00420678\Bq,0,
 4.31895728,3.74309631,-0.2612779\Bq,0,4.51091094,3.74309631,-0.5119922
 7\Bq,0,4.7028646,3.74309631,-0.76921677\Bq,0,-4.7028646,3.93504997,0.8
 2557565\Bq,0,-4.51091094,3.93504997,1.041913\Bq,0,-4.31895728,3.935049
 97,1.23053298\Bq,0,-4.12700363,3.93504997,1.4161004\Bq,0,-3.93504997,3
 .93504997,1.60599799\Bq,0,-3.74309631,3.93504997,1.77938247\Bq,0,-3.55
 114265,3.93504997,1.92983352\Bq,0,-3.359189,3.93504997,2.07264048\Bq,0
 ,-3.16723534,3.93504997,2.21691722\Bq,0,-2.97528168,3.93504997,2.35489
 192\Bq,0,-2.78332803,3.93504997,2.47607413\Bq,0,-2.59137437,3.93504997
 ,2.5795735\Bq,0,-2.39942071,3.93504997,2.67192099\Bq,0,-2.20746706,3.9
 3504997,2.75885602\Bq,0,-2.0155134,3.93504997,2.84119352\Bq,0,-1.82355
 974,3.93504997,2.91618722\Bq,0,-1.63160608,3.93504997,2.9806609\Bq,0,-
 1.43965243,3.93504997,3.03290109\Bq,0,-1.24769877,3.93504997,3.0728127
 \Bq,0,-1.05574511,3.93504997,3.10119823\Bq,0,-0.86379146,3.93504997,3.
 11901843\Bq,0,-0.6718378,3.93504997,3.12699205\Bq,0,-0.47988414,3.9350
 4997,3.12551146\Bq,0,-0.28793049,3.93504997,3.11472333\Bq,0,-0.0959768
 3,3.93504997,3.09464752\Bq,0,0.09597683,3.93504997,3.06527028\Bq,0,0.2
 8793049,3.93504997,3.02659171\Bq,0,0.47988414,3.93504997,2.97862583\Bq
 ,0,0.6718378,3.93504997,2.92135298\Bq,0,0.86379146,3.93504997,2.854626
 71\Bq,0,1.05574511,3.93504997,2.77805481\Bq,0,1.24769877,3.93504997,2.
 69091867\Bq,0,1.43965243,3.93504997,2.59225764\Bq,0,1.63160608,3.93504
 997,2.48126929\Bq,0,1.82355974,3.93504997,2.3580487\Bq,0,2.0155134,3.9
 3504997,2.2243093\Bq,0,2.20746706,3.93504997,2.08322724\Bq,0,2.3994207
 1,3.93504997,1.93754865\Bq,0,2.59137437,3.93504997,1.78645846\Bq,0,2.7
 8332803,3.93504997,1.62421704\Bq,0,2.97528168,3.93504997,1.44429323\Bq
 ,0,3.16723534,3.93504997,1.24757713\Bq,0,3.359189,3.93504997,1.0445589
 6\Bq,0,3.55114265,3.93504997,0.8430103\Bq,0,3.74309631,3.93504997,0.63
 381705\Bq,0,3.93504997,3.93504997,0.40168965\Bq,0,4.12700363,3.9350499
 7,0.15304826\Bq,0,4.31895728,3.93504997,-0.09126402\Bq,0,4.51091094,3.
 93504997,-0.33863001\Bq,0,4.7028646,3.93504997,-0.61371461\Bq,0,-4.702
 8646,4.12700363,1.0596098\Bq,0,-4.51091094,4.12700363,1.27814975\Bq,0,
 -4.31895728,4.12700363,1.48095386\Bq,0,-4.12700363,4.12700363,1.658082
 81\Bq,0,-3.93504997,4.12700363,1.83279649\Bq,0,-3.74309631,4.12700363,
 2.01078624\Bq,0,-3.55114265,4.12700363,2.17366425\Bq,0,-3.359189,4.127
 00363,2.31419158\Bq,0,-3.16723534,4.12700363,2.44439648\Bq,0,-2.975281
 68,4.12700363,2.57438841\Bq,0,-2.78332803,4.12700363,2.70056382\Bq,0,-
 2.59137437,4.12700363,2.81364296\Bq,0,-2.39942071,4.12700363,2.9095783
 \Bq,0,-2.20746706,4.12700363,2.9913026\Bq,0,-2.0155134,4.12700363,3.06
 3928\Bq,0,-1.82355974,4.12700363,3.13041749\Bq,0,-1.63160608,4.1270036
 3,3.19068796\Bq,0,-1.43965243,4.12700363,3.24298462\Bq,0,-1.24769877,4
 .12700363,3.28548465\Bq,0,-1.05574511,4.12700363,3.31711199\Bq,0,-0.86
 379146,4.12700363,3.33758894\Bq,0,-0.6718378,4.12700363,3.34713567\Bq,
 0,-0.47988414,4.12700363,3.34615056\Bq,0,-0.28793049,4.12700363,3.3350
 0679\Bq,0,-0.09597683,4.12700363,3.31396522\Bq,0,0.09597683,4.12700363
 ,3.28315512\Bq,0,0.28793049,4.12700363,3.24257661\Bq,0,0.47988414,4.12
 700363,3.19210066\Bq,0,0.6718378,4.12700363,3.13146662\Bq,0,0.86379146
 ,4.12700363,3.06030153\Bq,0,1.05574511,4.12700363,2.97820718\Bq,0,1.24
 769877,4.12700363,2.88496353\Bq,0,1.43965243,4.12700363,2.78084838\Bq,
 0,1.63160608,4.12700363,2.66693784\Bq,0,1.82355974,4.12700363,2.545054
 75\Bq,0,2.0155134,4.12700363,2.41695385\Bq,0,2.20746706,4.12700363,2.2
 8271819\Bq,0,2.39942071,4.12700363,2.13938462\Bq,0,2.59137437,4.127003
 63,1.98184087\Bq,0,2.78332803,4.12700363,1.80715398\Bq,0,2.97528168,4.
 12700363,1.61937125\Bq,0,3.16723534,4.12700363,1.42777222\Bq,0,3.35918
 9,4.12700363,1.23596018\Bq,0,3.55114265,4.12700363,1.03382544\Bq,0,3.7
 4309631,4.12700363,0.80933952\Bq,0,3.93504997,4.12700363,0.56974115\Bq
 ,0,4.12700363,4.12700363,0.33341796\Bq,0,4.31895728,4.12700363,0.09467
 845\Bq,0,4.51091094,4.12700363,-0.16973738\Bq,0,4.7028646,4.12700363,-
 0.44989029\Bq,0,-4.7028646,4.31895728,1.31944129\Bq,0,-4.51091094,4.31
 895728,1.51915227\Bq,0,-4.31895728,4.31895728,1.72661994\Bq,0,-4.12700
 363,4.31895728,1.91748799\Bq,0,-3.93504997,4.31895728,2.0837632\Bq,0,-
 3.74309631,4.31895728,2.24612839\Bq,0,-3.55114265,4.31895728,2.4115133
 2\Bq,0,-3.359189,4.31895728,2.56485742\Bq,0,-3.16723534,4.31895728,2.6
 9674633\Bq,0,-2.97528168,4.31895728,2.81468722\Bq,0,-2.78332803,4.3189
 5728,2.92927647\Bq,0,-2.59137437,4.31895728,3.04167465\Bq,0,-2.3994207
 1,4.31895728,3.14548636\Bq,0,-2.20746706,4.31895728,3.23491723\Bq,0,-2
 .0155134,4.31895728,3.30903295\Bq,0,-1.82355974,4.31895728,3.37051478\
 Bq,0,-1.63160608,4.31895728,3.4225556\Bq,0,-1.43965243,4.31895728,3.46
 693146\Bq,0,-1.24769877,4.31895728,3.50380223\Bq,0,-1.05574511,4.31895
 728,3.53240935\Bq,0,-0.86379146,4.31895728,3.55181283\Bq,0,-0.6718378,
 4.31895728,3.56129907\Bq,0,-0.47988414,4.31895728,3.56047374\Bq,0,-0.2
 8793049,4.31895728,3.54918669\Bq,0,-0.09597683,4.31895728,3.52741539\B
 q,0,0.09597683,4.31895728,3.49517243\Bq,0,0.28793049,4.31895728,3.4524
 5795\Bq,0,0.47988414,4.31895728,3.39925957\Bq,0,0.6718378,4.31895728,3
 .33560005\Bq,0,0.86379146,4.31895728,3.26162974\Bq,0,1.05574511,4.3189
 5728,3.17774315\Bq,0,1.24769877,4.31895728,3.084654\Bq,0,1.43965243,4.
 31895728,2.9833024\Bq,0,1.63160608,4.31895728,2.87444697\Bq,0,1.823559
 74,4.31895728,2.75792782\Bq,0,2.0155134,4.31895728,2.63196888\Bq,0,2.2
 0746706,4.31895728,2.49337718\Bq,0,2.39942071,4.31895728,2.33947134\Bq
 ,0,2.59137437,4.31895728,2.17118551\Bq,0,2.78332803,4.31895728,1.99431
 388\Bq,0,2.97528168,4.31895728,1.8152516\Bq,0,3.16723534,4.31895728,1.
 6328379\Bq,0,3.359189,4.31895728,1.43647614\Bq,0,3.55114265,4.31895728
 ,1.21865892\Bq,0,3.74309631,4.31895728,0.98880038\Bq,0,3.93504997,4.31
 895728,0.76196086\Bq,0,4.12700363,4.31895728,0.53121044\Bq,0,4.3189572
 8,4.31895728,0.27586611\Bq,0,4.51091094,4.31895728,0.00392101\Bq,0,4.7
 028646,4.31895728,-0.26026864\Bq,0,-4.7028646,4.51091094,1.59023513\Bq
 ,0,-4.51091094,4.51091094,1.78662556\Bq,0,-4.31895728,4.51091094,1.975
 52404\Bq,0,-4.12700363,4.51091094,2.17105565\Bq,0,-3.93504997,4.510910
 94,2.35151498\Bq,0,-3.74309631,4.51091094,2.50766609\Bq,0,-3.55114265,
 4.51091094,2.65658975\Bq,0,-3.359189,4.51091094,2.8081144\Bq,0,-3.1672
 3534,4.51091094,2.95194393\Bq,0,-2.97528168,4.51091094,3.07674652\Bq,0
 ,-2.78332803,4.51091094,3.18427841\Bq,0,-2.59137437,4.51091094,3.28357
 677\Bq,0,-2.39942071,4.51091094,3.3797943\Bq,0,-2.20746706,4.51091094,
 3.47104375\Bq,0,-2.0155134,4.51091094,3.55242712\Bq,0,-1.82355974,4.51
 091094,3.62055247\Bq,0,-1.63160608,4.51091094,3.67496471\Bq,0,-1.43965
 243,4.51091094,3.71711511\Bq,0,-1.24769877,4.51091094,3.74880239\Bq,0,
 -1.05574511,4.51091094,3.77124163\Bq,0,-0.86379146,4.51091094,3.784884
 64\Bq,0,-0.6718378,4.51091094,3.78964739\Bq,0,-0.47988414,4.51091094,3
 .78521134\Bq,0,-0.28793049,4.51091094,3.77123857\Bq,0,-0.09597683,4.51
 091094,3.74747835\Bq,0,0.09597683,4.51091094,3.71380255\Bq,0,0.2879304
 9,4.51091094,3.67021126\Bq,0,0.47988414,4.51091094,3.6168329\Bq,0,0.67
 18378,4.51091094,3.55391839\Bq,0,0.86379146,4.51091094,3.48180587\Bq,0
 ,1.05574511,4.51091094,3.40081404\Bq,0,1.24769877,4.51091094,3.3110270
 7\Bq,0,1.43965243,4.51091094,3.21199325\Bq,0,1.63160608,4.51091094,3.1
 0249757\Bq,0,1.82355974,4.51091094,2.98074129\Bq,0,2.0155134,4.5109109
 4,2.84527312\Bq,0,2.20746706,4.51091094,2.69654806\Bq,0,2.39942071,4.5
 1091094,2.53795794\Bq,0,2.59137437,4.51091094,2.37440058\Bq,0,2.783328
 03,4.51091094,2.20776306\Bq,0,2.97528168,4.51091094,2.03289243\Bq,0,3.
 16723534,4.51091094,1.84075133\Bq,0,3.359189,4.51091094,1.62958325\Bq,
 0,3.55114265,4.51091094,1.41071977\Bq,0,3.74309631,4.51091094,1.194456
 79\Bq,0,3.93504997,4.51091094,0.97096565\Bq,0,4.12700363,4.51091094,0.
 72316538\Bq,0,4.31895728,4.51091094,0.46029179\Bq,0,4.51091094,4.51091
 094,0.20405018\Bq,0,4.7028646,4.51091094,-0.05968463\Bq,0,-4.7028646,4
 .7028646,1.85241419\Bq,0,-4.51091094,4.7028646,2.06644427\Bq,0,-4.3189
 5728,4.7028646,2.25202219\Bq,0,-4.12700363,4.7028646,2.42872484\Bq,0,-
 3.93504997,4.7028646,2.61138677\Bq,0,-3.74309631,4.7028646,2.78253228\
 Bq,0,-3.55114265,4.7028646,2.9298841\Bq,0,-3.359189,4.7028646,3.065206
 77\Bq,0,-3.16723534,4.7028646,3.20110353\Bq,0,-2.97528168,4.7028646,3.
 33378818\Bq,0,-2.78332803,4.7028646,3.45224906\Bq,0,-2.59137437,4.7028
 646,3.55247665\Bq,0,-2.39942071,4.7028646,3.63916613\Bq,0,-2.20746706,
 4.7028646,3.71866365\Bq,0,-2.0155134,4.7028646,3.79347287\Bq,0,-1.8235
 5974,4.7028646,3.8620442\Bq,0,-1.63160608,4.7028646,3.92138532\Bq,0,-1
 .43965243,4.7028646,3.9692951\Bq,0,-1.24769877,4.7028646,4.00505736\Bq
 ,0,-1.05574511,4.7028646,4.02904816\Bq,0,-0.86379146,4.7028646,4.04206
 47\Bq,0,-0.6718378,4.7028646,4.04484954\Bq,0,-0.47988414,4.7028646,4.0
 3790267\Bq,0,-0.28793049,4.7028646,4.021487\Bq,0,-0.09597683,4.7028646
 ,3.99570937\Bq,0,0.09597683,4.7028646,3.96060071\Bq,0,0.28793049,4.702
 8646,3.91616113\Bq,0,0.47988414,4.7028646,3.86235996\Bq,0,0.6718378,4.
 7028646,3.79909056\Bq,0,0.86379146,4.7028646,3.72609024\Bq,0,1.0557451
 1,4.7028646,3.64285918\Bq,0,1.24769877,4.7028646,3.54865494\Bq,0,1.439
 65243,4.7028646,3.44268044\Bq,0,1.63160608,4.7028646,3.32455966\Bq,0,1
 .82355974,4.7028646,3.1950088\Bq,0,2.0155134,4.7028646,3.05622894\Bq,0
 ,2.20746706,4.7028646,2.91121233\Bq,0,2.39942071,4.7028646,2.76150842\
 Bq,0,2.59137437,4.7028646,2.60461341\Bq,0,2.78332803,4.7028646,2.43418
 095\Bq,0,2.97528168,4.7028646,2.24551563\Bq,0,3.16723534,4.7028646,2.0
 4262675\Bq,0,3.359189,4.7028646,1.83652574\Bq,0,3.55114265,4.7028646,1
 .63099854\Bq,0,3.74309631,4.7028646,1.41344168\Bq,0,3.93504997,4.70286
 46,1.17209043\Bq,0,4.12700363,4.7028646,0.91922186\Bq,0,4.31895728,4.7
 028646,0.67231153\Bq,0,4.51091094,4.7028646,0.41652476\Bq,0,4.7028646,
 4.7028646,0.13228461\\Version=EM64L-G09RevD.01\HF=-23266.1502129\RMSD=
 8.874e-09\Dipole=-0.0000856,-0.000186,-0.0029543\Quadrupole=2.4783343,
 2.3791322,-4.8574665,-0.2337502,-0.0007032,0.000109\PG=C01 [X(C10As10N
 10)]\\@


 REALITY IS FOR PEOPLE WHO CAN'T FACE SCIENCE FICTION.
 Job cpu time:       0 days  1 hours  4 minutes  7.3 seconds.
 File lengths (MBytes):  RWF=    228 Int=      0 D2E=      0 Chk=     25 Scr=      1
 Normal termination of Gaussian 09 at Mon Jan 13 10:07:09 2020.
