 Entering Gaussian System, Link 0=g09
 Input=intmodes_DQ_sulf8_PN.gjf
 Output=intmodes_DQ_sulf8_PN.log
 Initial command:
 /opt/local/g09/l1.exe "/home/scratch/vidal/Gau-10779.inp" -scrdir="/home/scratch/vidal/"
 Default is to use a total of  16 processors:
                               16 via shared-memory
                                1 via Linda
 Entering Link 1 = /opt/local/g09/l1.exe PID=     10780.
  
 Copyright (c) 1988,1990,1992,1993,1995,1998,2003,2009,2013,
            Gaussian, Inc.  All Rights Reserved.
  
 This is part of the Gaussian(R) 09 program.  It is based on
 the Gaussian(R) 03 system (copyright 2003, Gaussian, Inc.),
 the Gaussian(R) 98 system (copyright 1998, Gaussian, Inc.),
 the Gaussian(R) 94 system (copyright 1995, Gaussian, Inc.),
 the Gaussian 92(TM) system (copyright 1992, Gaussian, Inc.),
 the Gaussian 90(TM) system (copyright 1990, Gaussian, Inc.),
 the Gaussian 88(TM) system (copyright 1988, Gaussian, Inc.),
 the Gaussian 86(TM) system (copyright 1986, Carnegie Mellon
 University), and the Gaussian 82(TM) system (copyright 1983,
 Carnegie Mellon University). Gaussian is a federally registered
 trademark of Gaussian, Inc.
  
 This software contains proprietary and confidential information,
 including trade secrets, belonging to Gaussian, Inc.
  
 This software is provided under written license and may be
 used, copied, transmitted, or stored only in accord with that
 written license.
  
 The following legend is applicable only to US Government
 contracts under FAR:
  
                    RESTRICTED RIGHTS LEGEND
  
 Use, reproduction and disclosure by the US Government is
 subject to restrictions as set forth in subparagraphs (a)
 and (c) of the Commercial Computer Software - Restricted
 Rights clause in FAR 52.227-19.
  
 Gaussian, Inc.
 340 Quinnipiac St., Bldg. 40, Wallingford CT 06492
  
  
 ---------------------------------------------------------------
 Warning -- This program may not be used in any manner that
 competes with the business of Gaussian, Inc. or will provide
 assistance to any competitor of Gaussian, Inc.  The licensee
 of this program is prohibited from giving any competitor of
 Gaussian, Inc. access to this program.  By using this program,
 the user acknowledges that Gaussian, Inc. is engaged in the
 business of creating and licensing software in the field of
 computational chemistry and represents and warrants to the
 licensee that it is not a competitor of Gaussian, Inc. and that
 it will not use this program in any manner prohibited above.
 ---------------------------------------------------------------
  

 Cite this work as:
 Gaussian 09, Revision D.01,
 M. J. Frisch, G. W. Trucks, H. B. Schlegel, G. E. Scuseria, 
 M. A. Robb, J. R. Cheeseman, G. Scalmani, V. Barone, B. Mennucci, 
 G. A. Petersson, H. Nakatsuji, M. Caricato, X. Li, H. P. Hratchian, 
 A. F. Izmaylov, J. Bloino, G. Zheng, J. L. Sonnenberg, M. Hada, 
 M. Ehara, K. Toyota, R. Fukuda, J. Hasegawa, M. Ishida, T. Nakajima, 
 Y. Honda, O. Kitao, H. Nakai, T. Vreven, J. A. Montgomery, Jr., 
 J. E. Peralta, F. Ogliaro, M. Bearpark, J. J. Heyd, E. Brothers, 
 K. N. Kudin, V. N. Staroverov, T. Keith, R. Kobayashi, J. Normand, 
 K. Raghavachari, A. Rendell, J. C. Burant, S. S. Iyengar, J. Tomasi, 
 M. Cossi, N. Rega, J. M. Millam, M. Klene, J. E. Knox, J. B. Cross, 
 V. Bakken, C. Adamo, J. Jaramillo, R. Gomperts, R. E. Stratmann, 
 O. Yazyev, A. J. Austin, R. Cammi, C. Pomelli, J. W. Ochterski, 
 R. L. Martin, K. Morokuma, V. G. Zakrzewski, G. A. Voth, 
 P. Salvador, J. J. Dannenberg, S. Dapprich, A. D. Daniels, 
 O. Farkas, J. B. Foresman, J. V. Ortiz, J. Cioslowski, 
 and D. J. Fox, Gaussian, Inc., Wallingford CT, 2013.
 
 ******************************************
 Gaussian 09:  EM64L-G09RevD.01 24-Apr-2013
                12-Jun-2019 
 ******************************************
 ------------------------------------------------------------
 # freq=intmodes wb97xd nosymm def2svp integral=ultrafinegrid
 ------------------------------------------------------------
 1/10=4,18=20,30=1,38=1/1,3;
 2/9=110,12=2,15=1,17=6,18=5,40=1/2;
 3/5=43,7=101,11=2,16=1,25=1,30=1,71=2,74=-58,75=-5,140=1/1,2,3;
 4//1;
 5/5=2,38=5,98=1/2;
 8/6=4,10=90,11=11/1;
 11/6=1,8=1,9=11,15=111,16=1,31=1/1,2,10;
 10/6=1,31=1/2;
 6/7=2,8=2,9=2,10=2,18=1,28=1/1;
 7/8=21,10=1,25=1,30=1/1,2,3,16;
 1/10=4,18=20,30=1/3;
 99//99;
 -----
 Title
 -----
 Symbolic Z-matrix:
 Charge =  2 Multiplicity = 1
 C                    -1.08135   0.29361   2.03064 
 N                    -1.8416   -0.84305   1.94074 
 C                    -1.71215   1.52395   1.90986 
 C                    -1.19471  -2.15864   2.05459 
 C                    -3.18024  -0.78519   1.73964 
 C                     0.37538   0.16807   2.27991 
 C                    -3.09986   1.60371   1.72228 
 H                    -1.13647   2.44397   2.00373 
 C                    -0.07377  -2.10417   3.05789 
 H                    -1.94444  -2.89391   2.36841 
 H                    -0.8123   -2.45615   1.07042 
 C                    -3.83965   0.42197   1.64998 
 H                    -3.70232  -1.74179   1.6929 
 N                     0.86929  -1.03855   2.69339 
 C                     1.25272   1.23425   2.14638 
 H                    -3.59436   2.57492   1.71745 
 H                     0.45863  -3.0625    3.05965 
 H                    -0.44404  -1.90826   4.07692 
 H                    -4.92313   0.42791   1.52753 
 C                     2.19473  -1.22356   2.91772 
 C                     2.61606   1.08159   2.44847 
 H                     0.8889    2.20975   1.82434 
 C                     3.08651  -0.17879   2.82499 
 H                     2.49582  -2.22167   3.238 
 H                     3.2701    1.95304   2.46149 
 H                     4.13869  -0.35367   3.05211 
 N                    -0.43995  -3.0151   -1.1265 
 C                    -0.22232  -1.66345  -1.16658 
 P                    -2.11741  -3.45571  -1.36857 
 P                     1.0076   -3.93895  -0.76712 
 C                    -1.4067   -0.93578  -1.34105 
 C                     1.11128  -1.32581  -0.89652 
 N                    -2.50366  -1.74321  -1.44066 
 N                     1.88745  -2.42219  -0.64592 
 C                    -1.7388    0.42447  -1.36581 
 C                     1.82957  -0.12875  -0.80384 
 P                    -4.00298  -0.85355  -1.55845 
 P                     3.54717  -2.02046  -0.27478 
 N                    -3.08408   0.62918  -1.47455 
 C                    -1.02558   1.62357  -1.2254 
 N                     3.14164  -0.3344   -0.48683 
 C                     1.50439   1.2349   -0.87484 
 P                    -3.53154   2.31617  -1.39128 
 N                    -1.83876   2.71991  -1.22631 
 C                     0.32041   1.96141  -1.04775 
 P                     4.0409    1.1504   -0.2926 
 N                     2.57565   2.04266  -0.63207 
 P                    -0.9781    4.22913  -1.00513 
 N                     0.50578   3.30796  -0.89356 
 P                     2.1747    3.74786  -0.59615 
 
 Add virtual bond connecting atoms N27        and H11        Dist= 4.34D+00.
 Add virtual bond connecting atoms C28        and H11        Dist= 4.62D+00.

 GradGradGradGradGradGradGradGradGradGradGradGradGradGradGradGradGradGrad
 Berny optimization.
 Initialization pass.
                           ----------------------------
                           !    Initial Parameters    !
                           ! (Angstroms and Degrees)  !
 --------------------------                            --------------------------
 ! Name  Definition              Value          Derivative Info.                !
 --------------------------------------------------------------------------------
 ! R1    R(1,2)                  1.3704         calculate D2E/DX2 analytically  !
 ! R2    R(1,3)                  1.3879         calculate D2E/DX2 analytically  !
 ! R3    R(1,6)                  1.4832         calculate D2E/DX2 analytically  !
 ! R4    R(2,4)                  1.4704         calculate D2E/DX2 analytically  !
 ! R5    R(2,5)                  1.3549         calculate D2E/DX2 analytically  !
 ! R6    R(3,7)                  1.4026         calculate D2E/DX2 analytically  !
 ! R7    R(3,8)                  1.0893         calculate D2E/DX2 analytically  !
 ! R8    R(4,9)                  1.5054         calculate D2E/DX2 analytically  !
 ! R9    R(4,10)                 1.096          calculate D2E/DX2 analytically  !
 ! R10   R(4,11)                 1.097          calculate D2E/DX2 analytically  !
 ! R11   R(5,12)                 1.3784         calculate D2E/DX2 analytically  !
 ! R12   R(5,13)                 1.0908         calculate D2E/DX2 analytically  !
 ! R13   R(6,14)                 1.3678         calculate D2E/DX2 analytically  !
 ! R14   R(6,15)                 1.3872         calculate D2E/DX2 analytically  !
 ! R15   R(7,12)                 1.3961         calculate D2E/DX2 analytically  !
 ! R16   R(7,16)                 1.0899         calculate D2E/DX2 analytically  !
 ! R17   R(9,14)                 1.4689         calculate D2E/DX2 analytically  !
 ! R18   R(9,17)                 1.0963         calculate D2E/DX2 analytically  !
 ! R19   R(9,18)                 1.1018         calculate D2E/DX2 analytically  !
 ! R20   R(11,27)                2.2973         calculate D2E/DX2 analytically  !
 ! R21   R(11,28)                2.4455         calculate D2E/DX2 analytically  !
 ! R22   R(12,19)                1.0904         calculate D2E/DX2 analytically  !
 ! R23   R(14,20)                1.357          calculate D2E/DX2 analytically  !
 ! R24   R(15,21)                1.4047         calculate D2E/DX2 analytically  !
 ! R25   R(15,22)                1.0898         calculate D2E/DX2 analytically  !
 ! R26   R(20,23)                1.3767         calculate D2E/DX2 analytically  !
 ! R27   R(20,24)                1.0906         calculate D2E/DX2 analytically  !
 ! R28   R(21,23)                1.397          calculate D2E/DX2 analytically  !
 ! R29   R(21,25)                1.0897         calculate D2E/DX2 analytically  !
 ! R30   R(23,26)                1.0905         calculate D2E/DX2 analytically  !
 ! R31   R(27,28)                1.3696         calculate D2E/DX2 analytically  !
 ! R32   R(27,29)                1.7512         calculate D2E/DX2 analytically  !
 ! R33   R(27,30)                1.7544         calculate D2E/DX2 analytically  !
 ! R34   R(28,31)                1.401          calculate D2E/DX2 analytically  !
 ! R35   R(28,32)                1.4019         calculate D2E/DX2 analytically  !
 ! R36   R(29,33)                1.757          calculate D2E/DX2 analytically  !
 ! R37   R(30,34)                1.7577         calculate D2E/DX2 analytically  !
 ! R38   R(31,33)                1.3657         calculate D2E/DX2 analytically  !
 ! R39   R(31,35)                1.4004         calculate D2E/DX2 analytically  !
 ! R40   R(32,34)                1.3665         calculate D2E/DX2 analytically  !
 ! R41   R(32,36)                1.3991         calculate D2E/DX2 analytically  !
 ! R42   R(33,37)                1.7474         calculate D2E/DX2 analytically  !
 ! R43   R(34,38)                1.7475         calculate D2E/DX2 analytically  !
 ! R44   R(35,39)                1.3651         calculate D2E/DX2 analytically  !
 ! R45   R(35,40)                1.4022         calculate D2E/DX2 analytically  !
 ! R46   R(36,41)                1.3654         calculate D2E/DX2 analytically  !
 ! R47   R(36,42)                1.4037         calculate D2E/DX2 analytically  !
 ! R48   R(37,39)                1.7464         calculate D2E/DX2 analytically  !
 ! R49   R(38,41)                1.7471         calculate D2E/DX2 analytically  !
 ! R50   R(39,43)                1.7473         calculate D2E/DX2 analytically  !
 ! R51   R(40,44)                1.365          calculate D2E/DX2 analytically  !
 ! R52   R(40,45)                1.3991         calculate D2E/DX2 analytically  !
 ! R53   R(41,46)                1.7467         calculate D2E/DX2 analytically  !
 ! R54   R(42,45)                1.3998         calculate D2E/DX2 analytically  !
 ! R55   R(42,47)                1.3634         calculate D2E/DX2 analytically  !
 ! R56   R(43,44)                1.7481         calculate D2E/DX2 analytically  !
 ! R57   R(44,48)                1.7514         calculate D2E/DX2 analytically  !
 ! R58   R(45,49)                1.368          calculate D2E/DX2 analytically  !
 ! R59   R(46,47)                1.7488         calculate D2E/DX2 analytically  !
 ! R60   R(47,50)                1.7521         calculate D2E/DX2 analytically  !
 ! R61   R(48,49)                1.7501         calculate D2E/DX2 analytically  !
 ! R62   R(49,50)                1.7514         calculate D2E/DX2 analytically  !
 ! A1    A(2,1,3)              118.5175         calculate D2E/DX2 analytically  !
 ! A2    A(2,1,6)              119.0564         calculate D2E/DX2 analytically  !
 ! A3    A(3,1,6)              122.4142         calculate D2E/DX2 analytically  !
 ! A4    A(1,2,4)              119.5343         calculate D2E/DX2 analytically  !
 ! A5    A(1,2,5)              121.4943         calculate D2E/DX2 analytically  !
 ! A6    A(4,2,5)              118.9699         calculate D2E/DX2 analytically  !
 ! A7    A(1,3,7)              120.7786         calculate D2E/DX2 analytically  !
 ! A8    A(1,3,8)              120.067          calculate D2E/DX2 analytically  !
 ! A9    A(7,3,8)              119.1012         calculate D2E/DX2 analytically  !
 ! A10   A(2,4,9)              110.2928         calculate D2E/DX2 analytically  !
 ! A11   A(2,4,10)             108.7507         calculate D2E/DX2 analytically  !
 ! A12   A(2,4,11)             109.0595         calculate D2E/DX2 analytically  !
 ! A13   A(9,4,10)             110.0483         calculate D2E/DX2 analytically  !
 ! A14   A(9,4,11)             110.3759         calculate D2E/DX2 analytically  !
 ! A15   A(10,4,11)            108.2654         calculate D2E/DX2 analytically  !
 ! A16   A(2,5,12)             121.3113         calculate D2E/DX2 analytically  !
 ! A17   A(2,5,13)             116.2181         calculate D2E/DX2 analytically  !
 ! A18   A(12,5,13)            122.4292         calculate D2E/DX2 analytically  !
 ! A19   A(1,6,14)             118.693          calculate D2E/DX2 analytically  !
 ! A20   A(1,6,15)             122.6791         calculate D2E/DX2 analytically  !
 ! A21   A(14,6,15)            118.6034         calculate D2E/DX2 analytically  !
 ! A22   A(3,7,12)             118.8863         calculate D2E/DX2 analytically  !
 ! A23   A(3,7,16)             120.0115         calculate D2E/DX2 analytically  !
 ! A24   A(12,7,16)            120.9079         calculate D2E/DX2 analytically  !
 ! A25   A(4,9,14)             109.8116         calculate D2E/DX2 analytically  !
 ! A26   A(4,9,17)             109.3335         calculate D2E/DX2 analytically  !
 ! A27   A(4,9,18)             111.8774         calculate D2E/DX2 analytically  !
 ! A28   A(14,9,17)            108.8305         calculate D2E/DX2 analytically  !
 ! A29   A(14,9,18)            108.4369         calculate D2E/DX2 analytically  !
 ! A30   A(17,9,18)            108.491          calculate D2E/DX2 analytically  !
 ! A31   A(4,11,28)            144.7716         calculate D2E/DX2 analytically  !
 ! A32   A(5,12,7)             118.9753         calculate D2E/DX2 analytically  !
 ! A33   A(5,12,19)            119.1709         calculate D2E/DX2 analytically  !
 ! A34   A(7,12,19)            121.8536         calculate D2E/DX2 analytically  !
 ! A35   A(6,14,9)             118.8911         calculate D2E/DX2 analytically  !
 ! A36   A(6,14,20)            121.5313         calculate D2E/DX2 analytically  !
 ! A37   A(9,14,20)            119.1539         calculate D2E/DX2 analytically  !
 ! A38   A(6,15,21)            120.6371         calculate D2E/DX2 analytically  !
 ! A39   A(6,15,22)            120.3501         calculate D2E/DX2 analytically  !
 ! A40   A(21,15,22)           119.0011         calculate D2E/DX2 analytically  !
 ! A41   A(14,20,23)           121.2047         calculate D2E/DX2 analytically  !
 ! A42   A(14,20,24)           116.2943         calculate D2E/DX2 analytically  !
 ! A43   A(23,20,24)           122.3751         calculate D2E/DX2 analytically  !
 ! A44   A(15,21,23)           118.8709         calculate D2E/DX2 analytically  !
 ! A45   A(15,21,25)           119.8809         calculate D2E/DX2 analytically  !
 ! A46   A(23,21,25)           121.076          calculate D2E/DX2 analytically  !
 ! A47   A(20,23,21)           118.9911         calculate D2E/DX2 analytically  !
 ! A48   A(20,23,26)           119.2913         calculate D2E/DX2 analytically  !
 ! A49   A(21,23,26)           121.7167         calculate D2E/DX2 analytically  !
 ! A50   A(11,27,29)            92.1866         calculate D2E/DX2 analytically  !
 ! A51   A(11,27,30)            93.7817         calculate D2E/DX2 analytically  !
 ! A52   A(28,27,29)           113.3571         calculate D2E/DX2 analytically  !
 ! A53   A(28,27,30)           113.2379         calculate D2E/DX2 analytically  !
 ! A54   A(29,27,30)           133.3283         calculate D2E/DX2 analytically  !
 ! A55   A(11,28,31)            94.4928         calculate D2E/DX2 analytically  !
 ! A56   A(11,28,32)            97.5476         calculate D2E/DX2 analytically  !
 ! A57   A(27,28,31)           112.4513         calculate D2E/DX2 analytically  !
 ! A58   A(27,28,32)           112.5313         calculate D2E/DX2 analytically  !
 ! A59   A(31,28,32)           134.6756         calculate D2E/DX2 analytically  !
 ! A60   A(27,29,33)            88.3395         calculate D2E/DX2 analytically  !
 ! A61   A(27,30,34)            88.4377         calculate D2E/DX2 analytically  !
 ! A62   A(28,31,33)           112.3981         calculate D2E/DX2 analytically  !
 ! A63   A(28,31,35)           135.0069         calculate D2E/DX2 analytically  !
 ! A64   A(33,31,35)           112.4877         calculate D2E/DX2 analytically  !
 ! A65   A(28,32,34)           112.4833         calculate D2E/DX2 analytically  !
 ! A66   A(28,32,36)           135.0063         calculate D2E/DX2 analytically  !
 ! A67   A(34,32,36)           112.502          calculate D2E/DX2 analytically  !
 ! A68   A(29,33,31)           113.3701         calculate D2E/DX2 analytically  !
 ! A69   A(29,33,37)           133.4437         calculate D2E/DX2 analytically  !
 ! A70   A(31,33,37)           113.1471         calculate D2E/DX2 analytically  !
 ! A71   A(30,34,32)           113.2903         calculate D2E/DX2 analytically  !
 ! A72   A(30,34,38)           133.5076         calculate D2E/DX2 analytically  !
 ! A73   A(32,34,38)           113.2021         calculate D2E/DX2 analytically  !
 ! A74   A(31,35,39)           112.3812         calculate D2E/DX2 analytically  !
 ! A75   A(31,35,40)           135.0903         calculate D2E/DX2 analytically  !
 ! A76   A(39,35,40)           112.3948         calculate D2E/DX2 analytically  !
 ! A77   A(32,36,41)           112.3244         calculate D2E/DX2 analytically  !
 ! A78   A(32,36,42)           135.1466         calculate D2E/DX2 analytically  !
 ! A79   A(41,36,42)           112.3754         calculate D2E/DX2 analytically  !
 ! A80   A(33,37,39)            88.7142         calculate D2E/DX2 analytically  !
 ! A81   A(34,38,41)            88.6031         calculate D2E/DX2 analytically  !
 ! A82   A(35,39,37)           113.2682         calculate D2E/DX2 analytically  !
 ! A83   A(35,39,43)           113.1634         calculate D2E/DX2 analytically  !
 ! A84   A(37,39,43)           133.4134         calculate D2E/DX2 analytically  !
 ! A85   A(35,40,44)           112.5659         calculate D2E/DX2 analytically  !
 ! A86   A(35,40,45)           135.1168         calculate D2E/DX2 analytically  !
 ! A87   A(44,40,45)           112.2892         calculate D2E/DX2 analytically  !
 ! A88   A(36,41,38)           113.3652         calculate D2E/DX2 analytically  !
 ! A89   A(36,41,46)           113.1107         calculate D2E/DX2 analytically  !
 ! A90   A(38,41,46)           133.4224         calculate D2E/DX2 analytically  !
 ! A91   A(36,42,45)           134.9411         calculate D2E/DX2 analytically  !
 ! A92   A(36,42,47)           112.6138         calculate D2E/DX2 analytically  !
 ! A93   A(45,42,47)           112.2762         calculate D2E/DX2 analytically  !
 ! A94   A(39,43,44)            88.8252         calculate D2E/DX2 analytically  !
 ! A95   A(40,44,43)           113.0456         calculate D2E/DX2 analytically  !
 ! A96   A(40,44,48)           113.5329         calculate D2E/DX2 analytically  !
 ! A97   A(43,44,48)           133.3784         calculate D2E/DX2 analytically  !
 ! A98   A(40,45,42)           134.7553         calculate D2E/DX2 analytically  !
 ! A99   A(40,45,49)           112.4806         calculate D2E/DX2 analytically  !
 ! A100  A(42,45,49)           112.4783         calculate D2E/DX2 analytically  !
 ! A101  A(41,46,47)            88.8979         calculate D2E/DX2 analytically  !
 ! A102  A(42,47,46)           112.9918         calculate D2E/DX2 analytically  !
 ! A103  A(42,47,50)           113.6055         calculate D2E/DX2 analytically  !
 ! A104  A(46,47,50)           133.1819         calculate D2E/DX2 analytically  !
 ! A105  A(44,48,49)            88.3462         calculate D2E/DX2 analytically  !
 ! A106  A(45,49,48)           113.3303         calculate D2E/DX2 analytically  !
 ! A107  A(45,49,50)           113.2981         calculate D2E/DX2 analytically  !
 ! A108  A(48,49,50)           133.3602         calculate D2E/DX2 analytically  !
 ! A109  A(47,50,49)            88.2881         calculate D2E/DX2 analytically  !
 ! A110  L(4,11,27,15,-1)      184.8042         calculate D2E/DX2 analytically  !
 ! A111  L(4,11,27,15,-2)      190.8741         calculate D2E/DX2 analytically  !
 ! D1    D(3,1,2,4)            179.5058         calculate D2E/DX2 analytically  !
 ! D2    D(3,1,2,5)             -0.0474         calculate D2E/DX2 analytically  !
 ! D3    D(6,1,2,4)             -1.7197         calculate D2E/DX2 analytically  !
 ! D4    D(6,1,2,5)            178.727          calculate D2E/DX2 analytically  !
 ! D5    D(2,1,3,7)              1.0492         calculate D2E/DX2 analytically  !
 ! D6    D(2,1,3,8)            178.3737         calculate D2E/DX2 analytically  !
 ! D7    D(6,1,3,7)           -177.6817         calculate D2E/DX2 analytically  !
 ! D8    D(6,1,3,8)             -0.3572         calculate D2E/DX2 analytically  !
 ! D9    D(2,1,6,14)           -13.7844         calculate D2E/DX2 analytically  !
 ! D10   D(2,1,6,15)           168.0404         calculate D2E/DX2 analytically  !
 ! D11   D(3,1,6,14)           164.94           calculate D2E/DX2 analytically  !
 ! D12   D(3,1,6,15)           -13.2353         calculate D2E/DX2 analytically  !
 ! D13   D(1,2,4,9)             36.2877         calculate D2E/DX2 analytically  !
 ! D14   D(1,2,4,10)           157.052          calculate D2E/DX2 analytically  !
 ! D15   D(1,2,4,11)           -85.078          calculate D2E/DX2 analytically  !
 ! D16   D(5,2,4,9)           -144.1477         calculate D2E/DX2 analytically  !
 ! D17   D(5,2,4,10)           -23.3834         calculate D2E/DX2 analytically  !
 ! D18   D(5,2,4,11)            94.4865         calculate D2E/DX2 analytically  !
 ! D19   D(1,2,5,12)            -1.6306         calculate D2E/DX2 analytically  !
 ! D20   D(1,2,5,13)          -179.3434         calculate D2E/DX2 analytically  !
 ! D21   D(4,2,5,12)           178.8137         calculate D2E/DX2 analytically  !
 ! D22   D(4,2,5,13)             1.1009         calculate D2E/DX2 analytically  !
 ! D23   D(1,3,7,12)            -0.4055         calculate D2E/DX2 analytically  !
 ! D24   D(1,3,7,16)           174.5748         calculate D2E/DX2 analytically  !
 ! D25   D(8,3,7,12)          -177.7555         calculate D2E/DX2 analytically  !
 ! D26   D(8,3,7,16)            -2.7751         calculate D2E/DX2 analytically  !
 ! D27   D(2,4,9,14)           -55.2191         calculate D2E/DX2 analytically  !
 ! D28   D(2,4,9,17)          -174.558          calculate D2E/DX2 analytically  !
 ! D29   D(2,4,9,18)            65.2384         calculate D2E/DX2 analytically  !
 ! D30   D(10,4,9,14)         -175.2038         calculate D2E/DX2 analytically  !
 ! D31   D(10,4,9,17)           65.4574         calculate D2E/DX2 analytically  !
 ! D32   D(10,4,9,18)          -54.7462         calculate D2E/DX2 analytically  !
 ! D33   D(11,4,9,14)           65.3605         calculate D2E/DX2 analytically  !
 ! D34   D(11,4,9,17)          -53.9783         calculate D2E/DX2 analytically  !
 ! D35   D(11,4,9,18)         -174.182          calculate D2E/DX2 analytically  !
 ! D36   D(2,4,11,28)           16.9812         calculate D2E/DX2 analytically  !
 ! D37   D(9,4,11,28)         -104.334          calculate D2E/DX2 analytically  !
 ! D38   D(10,4,11,28)         135.1563         calculate D2E/DX2 analytically  !
 ! D39   D(2,4,27,29)          -77.9519         calculate D2E/DX2 analytically  !
 ! D40   D(2,4,27,30)          148.4808         calculate D2E/DX2 analytically  !
 ! D41   D(9,4,27,29)          159.0324         calculate D2E/DX2 analytically  !
 ! D42   D(9,4,27,30)           25.465          calculate D2E/DX2 analytically  !
 ! D43   D(10,4,27,29)          36.3282         calculate D2E/DX2 analytically  !
 ! D44   D(10,4,27,30)         -97.2392         calculate D2E/DX2 analytically  !
 ! D45   D(2,5,12,7)             2.2505         calculate D2E/DX2 analytically  !
 ! D46   D(2,5,12,19)         -177.5806         calculate D2E/DX2 analytically  !
 ! D47   D(13,5,12,7)          179.8195         calculate D2E/DX2 analytically  !
 ! D48   D(13,5,12,19)          -0.0116         calculate D2E/DX2 analytically  !
 ! D49   D(1,6,14,9)            -8.5963         calculate D2E/DX2 analytically  !
 ! D50   D(1,6,14,20)          178.9388         calculate D2E/DX2 analytically  !
 ! D51   D(15,6,14,9)          169.6543         calculate D2E/DX2 analytically  !
 ! D52   D(15,6,14,20)          -2.8106         calculate D2E/DX2 analytically  !
 ! D53   D(1,6,15,21)          177.2642         calculate D2E/DX2 analytically  !
 ! D54   D(1,6,15,22)           -1.4761         calculate D2E/DX2 analytically  !
 ! D55   D(14,6,15,21)          -0.9126         calculate D2E/DX2 analytically  !
 ! D56   D(14,6,15,22)        -179.6529         calculate D2E/DX2 analytically  !
 ! D57   D(3,7,12,5)            -1.22           calculate D2E/DX2 analytically  !
 ! D58   D(3,7,12,19)          178.6064         calculate D2E/DX2 analytically  !
 ! D59   D(16,7,12,5)         -176.1537         calculate D2E/DX2 analytically  !
 ! D60   D(16,7,12,19)           3.6726         calculate D2E/DX2 analytically  !
 ! D61   D(4,9,14,6)            43.0235         calculate D2E/DX2 analytically  !
 ! D62   D(4,9,14,20)         -144.3297         calculate D2E/DX2 analytically  !
 ! D63   D(17,9,14,6)          162.67           calculate D2E/DX2 analytically  !
 ! D64   D(17,9,14,20)         -24.6832         calculate D2E/DX2 analytically  !
 ! D65   D(18,9,14,6)          -79.4963         calculate D2E/DX2 analytically  !
 ! D66   D(18,9,14,20)          93.1505         calculate D2E/DX2 analytically  !
 ! D67   D(4,11,28,31)         -47.5905         calculate D2E/DX2 analytically  !
 ! D68   D(4,11,28,32)          88.6157         calculate D2E/DX2 analytically  !
 ! D69   D(6,14,20,23)           4.4284         calculate D2E/DX2 analytically  !
 ! D70   D(6,14,20,24)        -179.558          calculate D2E/DX2 analytically  !
 ! D71   D(9,14,20,23)        -168.0172         calculate D2E/DX2 analytically  !
 ! D72   D(9,14,20,24)           7.9964         calculate D2E/DX2 analytically  !
 ! D73   D(6,15,21,23)           3.0099         calculate D2E/DX2 analytically  !
 ! D74   D(6,15,21,25)        -172.2739         calculate D2E/DX2 analytically  !
 ! D75   D(22,15,21,23)       -178.2331         calculate D2E/DX2 analytically  !
 ! D76   D(22,15,21,25)          6.4831         calculate D2E/DX2 analytically  !
 ! D77   D(14,20,23,21)         -2.1805         calculate D2E/DX2 analytically  !
 ! D78   D(14,20,23,26)        177.4748         calculate D2E/DX2 analytically  !
 ! D79   D(24,20,23,21)       -177.9484         calculate D2E/DX2 analytically  !
 ! D80   D(24,20,23,26)          1.7069         calculate D2E/DX2 analytically  !
 ! D81   D(15,21,23,20)         -1.4712         calculate D2E/DX2 analytically  !
 ! D82   D(15,21,23,26)        178.8822         calculate D2E/DX2 analytically  !
 ! D83   D(25,21,23,20)        173.7542         calculate D2E/DX2 analytically  !
 ! D84   D(25,21,23,26)         -5.8924         calculate D2E/DX2 analytically  !
 ! D85   D(29,27,28,31)          2.3483         calculate D2E/DX2 analytically  !
 ! D86   D(29,27,28,32)        176.6424         calculate D2E/DX2 analytically  !
 ! D87   D(30,27,28,31)       -174.8998         calculate D2E/DX2 analytically  !
 ! D88   D(30,27,28,32)         -0.6057         calculate D2E/DX2 analytically  !
 ! D89   D(11,27,29,33)         76.5436         calculate D2E/DX2 analytically  !
 ! D90   D(28,27,29,33)         -2.6976         calculate D2E/DX2 analytically  !
 ! D91   D(30,27,29,33)        173.8255         calculate D2E/DX2 analytically  !
 ! D92   D(11,27,30,34)        -78.845          calculate D2E/DX2 analytically  !
 ! D93   D(28,27,30,34)          1.0824         calculate D2E/DX2 analytically  !
 ! D94   D(29,27,30,34)       -175.4438         calculate D2E/DX2 analytically  !
 ! D95   D(11,28,31,33)        -67.7811         calculate D2E/DX2 analytically  !
 ! D96   D(11,28,31,35)        108.0508         calculate D2E/DX2 analytically  !
 ! D97   D(27,28,31,33)         -0.4477         calculate D2E/DX2 analytically  !
 ! D98   D(27,28,31,35)        175.3842         calculate D2E/DX2 analytically  !
 ! D99   D(32,28,31,33)       -173.0277         calculate D2E/DX2 analytically  !
 ! D100  D(32,28,31,35)          2.8042         calculate D2E/DX2 analytically  !
 ! D101  D(11,28,32,34)         68.1421         calculate D2E/DX2 analytically  !
 ! D102  D(11,28,32,36)       -110.6959         calculate D2E/DX2 analytically  !
 ! D103  D(27,28,32,34)         -0.4214         calculate D2E/DX2 analytically  !
 ! D104  D(27,28,32,36)       -179.2595         calculate D2E/DX2 analytically  !
 ! D105  D(31,28,32,34)        172.1542         calculate D2E/DX2 analytically  !
 ! D106  D(31,28,32,36)         -6.6838         calculate D2E/DX2 analytically  !
 ! D107  D(27,29,33,31)          2.4431         calculate D2E/DX2 analytically  !
 ! D108  D(27,29,33,37)       -175.0726         calculate D2E/DX2 analytically  !
 ! D109  D(27,30,34,32)         -1.3269         calculate D2E/DX2 analytically  !
 ! D110  D(27,30,34,38)        178.7896         calculate D2E/DX2 analytically  !
 ! D111  D(28,31,33,29)         -1.6404         calculate D2E/DX2 analytically  !
 ! D112  D(28,31,33,37)        176.3982         calculate D2E/DX2 analytically  !
 ! D113  D(35,31,33,29)       -178.4521         calculate D2E/DX2 analytically  !
 ! D114  D(35,31,33,37)         -0.4135         calculate D2E/DX2 analytically  !
 ! D115  D(28,31,35,39)       -175.4047         calculate D2E/DX2 analytically  !
 ! D116  D(28,31,35,40)         -0.0635         calculate D2E/DX2 analytically  !
 ! D117  D(33,31,35,39)          0.4246         calculate D2E/DX2 analytically  !
 ! D118  D(33,31,35,40)        175.7657         calculate D2E/DX2 analytically  !
 ! D119  D(28,32,34,30)          1.2633         calculate D2E/DX2 analytically  !
 ! D120  D(28,32,34,38)       -178.8286         calculate D2E/DX2 analytically  !
 ! D121  D(36,32,34,30)       -179.6259         calculate D2E/DX2 analytically  !
 ! D122  D(36,32,34,38)          0.2821         calculate D2E/DX2 analytically  !
 ! D123  D(28,32,36,41)        178.9651         calculate D2E/DX2 analytically  !
 ! D124  D(28,32,36,42)          3.9588         calculate D2E/DX2 analytically  !
 ! D125  D(34,32,36,41)          0.1272         calculate D2E/DX2 analytically  !
 ! D126  D(34,32,36,42)       -174.8791         calculate D2E/DX2 analytically  !
 ! D127  D(29,33,37,39)        177.7475         calculate D2E/DX2 analytically  !
 ! D128  D(31,33,37,39)          0.2276         calculate D2E/DX2 analytically  !
 ! D129  D(30,34,38,41)        179.4273         calculate D2E/DX2 analytically  !
 ! D130  D(32,34,38,41)         -0.4563         calculate D2E/DX2 analytically  !
 ! D131  D(31,35,39,37)         -0.2505         calculate D2E/DX2 analytically  !
 ! D132  D(31,35,39,43)        175.8426         calculate D2E/DX2 analytically  !
 ! D133  D(40,35,39,37)       -176.6947         calculate D2E/DX2 analytically  !
 ! D134  D(40,35,39,43)         -0.6017         calculate D2E/DX2 analytically  !
 ! D135  D(31,35,40,44)       -175.1931         calculate D2E/DX2 analytically  !
 ! D136  D(31,35,40,45)          2.6684         calculate D2E/DX2 analytically  !
 ! D137  D(39,35,40,44)          0.1475         calculate D2E/DX2 analytically  !
 ! D138  D(39,35,40,45)        178.0091         calculate D2E/DX2 analytically  !
 ! D139  D(32,36,41,38)         -0.4819         calculate D2E/DX2 analytically  !
 ! D140  D(32,36,41,46)       -177.3171         calculate D2E/DX2 analytically  !
 ! D141  D(42,36,41,38)        175.7113         calculate D2E/DX2 analytically  !
 ! D142  D(42,36,41,46)         -1.1239         calculate D2E/DX2 analytically  !
 ! D143  D(32,36,42,45)          1.2004         calculate D2E/DX2 analytically  !
 ! D144  D(32,36,42,47)        175.9638         calculate D2E/DX2 analytically  !
 ! D145  D(41,36,42,45)       -173.804          calculate D2E/DX2 analytically  !
 ! D146  D(41,36,42,47)          0.9594         calculate D2E/DX2 analytically  !
 ! D147  D(33,37,39,35)          0.0171         calculate D2E/DX2 analytically  !
 ! D148  D(33,37,39,43)       -175.0357         calculate D2E/DX2 analytically  !
 ! D149  D(34,38,41,36)          0.5308         calculate D2E/DX2 analytically  !
 ! D150  D(34,38,41,46)        176.5218         calculate D2E/DX2 analytically  !
 ! D151  D(35,39,43,44)          0.672          calculate D2E/DX2 analytically  !
 ! D152  D(37,39,43,44)        175.7287         calculate D2E/DX2 analytically  !
 ! D153  D(35,40,44,43)          0.3707         calculate D2E/DX2 analytically  !
 ! D154  D(35,40,44,48)        178.3071         calculate D2E/DX2 analytically  !
 ! D155  D(45,40,44,43)       -177.9986         calculate D2E/DX2 analytically  !
 ! D156  D(45,40,44,48)         -0.0622         calculate D2E/DX2 analytically  !
 ! D157  D(35,40,45,42)         -3.6085         calculate D2E/DX2 analytically  !
 ! D158  D(35,40,45,49)       -176.8177         calculate D2E/DX2 analytically  !
 ! D159  D(44,40,45,42)        174.2573         calculate D2E/DX2 analytically  !
 ! D160  D(44,40,45,49)          1.0481         calculate D2E/DX2 analytically  !
 ! D161  D(36,41,46,47)          0.7634         calculate D2E/DX2 analytically  !
 ! D162  D(38,41,46,47)       -175.2353         calculate D2E/DX2 analytically  !
 ! D163  D(36,42,45,40)         -0.262          calculate D2E/DX2 analytically  !
 ! D164  D(36,42,45,49)        172.9473         calculate D2E/DX2 analytically  !
 ! D165  D(47,42,45,40)       -175.0381         calculate D2E/DX2 analytically  !
 ! D166  D(47,42,45,49)         -1.8288         calculate D2E/DX2 analytically  !
 ! D167  D(36,42,47,46)         -0.3732         calculate D2E/DX2 analytically  !
 ! D168  D(36,42,47,50)       -175.6991         calculate D2E/DX2 analytically  !
 ! D169  D(45,42,47,46)        175.6235         calculate D2E/DX2 analytically  !
 ! D170  D(45,42,47,50)          0.2976         calculate D2E/DX2 analytically  !
 ! D171  D(39,43,44,40)         -0.586          calculate D2E/DX2 analytically  !
 ! D172  D(39,43,44,48)       -177.9827         calculate D2E/DX2 analytically  !
 ! D173  D(40,44,48,49)         -0.6771         calculate D2E/DX2 analytically  !
 ! D174  D(43,44,48,49)        176.71           calculate D2E/DX2 analytically  !
 ! D175  D(40,45,49,48)         -1.581          calculate D2E/DX2 analytically  !
 ! D176  D(40,45,49,50)        177.3542         calculate D2E/DX2 analytically  !
 ! D177  D(42,45,49,48)       -176.3672         calculate D2E/DX2 analytically  !
 ! D178  D(42,45,49,50)          2.568          calculate D2E/DX2 analytically  !
 ! D179  D(41,46,47,42)         -0.2104         calculate D2E/DX2 analytically  !
 ! D180  D(41,46,47,50)        173.9122         calculate D2E/DX2 analytically  !
 ! D181  D(42,47,50,49)          0.9364         calculate D2E/DX2 analytically  !
 ! D182  D(46,47,50,49)       -173.1589         calculate D2E/DX2 analytically  !
 ! D183  D(44,48,49,45)          1.2795         calculate D2E/DX2 analytically  !
 ! D184  D(44,48,49,50)       -177.3753         calculate D2E/DX2 analytically  !
 ! D185  D(45,49,50,47)         -1.9872         calculate D2E/DX2 analytically  !
 ! D186  D(48,49,50,47)        176.6679         calculate D2E/DX2 analytically  !
 --------------------------------------------------------------------------------
 Trust Radius=3.00D-01 FncErr=1.00D-07 GrdErr=1.00D-07
 Number of steps in this run=      2 maximum allowed number of steps=      2.
 GradGradGradGradGradGradGradGradGradGradGradGradGradGradGradGradGradGrad

                          Input orientation:                          
 ---------------------------------------------------------------------
 Center     Atomic      Atomic             Coordinates (Angstroms)
 Number     Number       Type             X           Y           Z
 ---------------------------------------------------------------------
      1          6           0       -1.081351    0.293609    2.030640
      2          7           0       -1.841600   -0.843054    1.940737
      3          6           0       -1.712145    1.523952    1.909856
      4          6           0       -1.194711   -2.158640    2.054587
      5          6           0       -3.180241   -0.785192    1.739640
      6          6           0        0.375381    0.168073    2.279907
      7          6           0       -3.099863    1.603711    1.722282
      8          1           0       -1.136472    2.443968    2.003732
      9          6           0       -0.073767   -2.104170    3.057886
     10          1           0       -1.944440   -2.893909    2.368414
     11          1           0       -0.812296   -2.456151    1.070417
     12          6           0       -3.839651    0.421972    1.649975
     13          1           0       -3.702324   -1.741794    1.692900
     14          7           0        0.869289   -1.038549    2.693391
     15          6           0        1.252718    1.234248    2.146377
     16          1           0       -3.594357    2.574919    1.717453
     17          1           0        0.458629   -3.062496    3.059652
     18          1           0       -0.444036   -1.908255    4.076924
     19          1           0       -4.923125    0.427913    1.527531
     20          6           0        2.194730   -1.223563    2.917718
     21          6           0        2.616058    1.081591    2.448468
     22          1           0        0.888899    2.209750    1.824342
     23          6           0        3.086509   -0.178790    2.824991
     24          1           0        2.495815   -2.221669    3.237996
     25          1           0        3.270100    1.953041    2.461490
     26          1           0        4.138694   -0.353666    3.052112
     27          7           0       -0.439952   -3.015103   -1.126503
     28          6           0       -0.222323   -1.663453   -1.166577
     29         15           0       -2.117405   -3.455705   -1.368573
     30         15           0        1.007604   -3.938950   -0.767115
     31          6           0       -1.406697   -0.935783   -1.341054
     32          6           0        1.111282   -1.325813   -0.896524
     33          7           0       -2.503659   -1.743211   -1.440659
     34          7           0        1.887452   -2.422186   -0.645919
     35          6           0       -1.738799    0.424469   -1.365807
     36          6           0        1.829565   -0.128747   -0.803844
     37         15           0       -4.002979   -0.853547   -1.558447
     38         15           0        3.547171   -2.020459   -0.274784
     39          7           0       -3.084079    0.629181   -1.474546
     40          6           0       -1.025576    1.623573   -1.225398
     41          7           0        3.141641   -0.334398   -0.486825
     42          6           0        1.504390    1.234904   -0.874843
     43         15           0       -3.531540    2.316173   -1.391284
     44          7           0       -1.838762    2.719905   -1.226308
     45          6           0        0.320407    1.961407   -1.047751
     46         15           0        4.040901    1.150395   -0.292600
     47          7           0        2.575647    2.042656   -0.632069
     48         15           0       -0.978102    4.229127   -1.005132
     49          7           0        0.505776    3.307955   -0.893561
     50         15           0        2.174704    3.747861   -0.596151
 ---------------------------------------------------------------------
                    Distance matrix (angstroms):
                    1          2          3          4          5
     1  C    0.000000
     2  N    1.370425   0.000000
     3  C    1.387888   2.370745   0.000000
     4  C    2.454985   1.470440   3.721581   0.000000
     5  C    2.377779   1.354898   2.741610   2.434724   0.000000
     6  C    1.483227   2.460166   2.516567   2.815946   3.720625
     7  C    2.426076   2.760001   1.402607   4.230286   2.390318
     8  H    2.151234   3.362393   1.089331   4.603257   3.830693
     9  C    2.796391   2.442062   4.143130   1.505354   3.623211
    10  H    3.319531   2.097496   4.447666   1.095993   2.523737
    11  H    2.924996   2.102143   4.166006   1.096971   2.974412
    12  C    2.787401   2.382654   2.410017   3.717388   1.378443
    13  H    3.335631   2.081214   3.830533   2.567626   1.090799
    14  N    2.453341   2.820217   3.720771   2.433674   4.168036
    15  C    2.519142   3.732596   2.988358   4.184498   4.888220
    16  H    3.408469   3.847668   2.164318   5.317757   3.385606
    17  H    3.833255   3.386583   5.202864   2.135567   4.491093
    18  H    3.072727   2.766068   4.252567   2.171647   3.769746
    19  H    3.876904   3.358853   3.414362   4.568273   2.134071
    20  C    3.717718   4.170280   4.881424   3.620452   5.519995
    21  C    3.803463   4.881881   4.383963   5.017589   6.130612
    22  H    2.756091   4.097412   2.691294   4.845335   5.053192
    23  C    4.269100   5.050684   5.173382   4.779349   6.388886
    24  H    4.536568   4.732508   5.787967   3.876134   6.043687
    25  H    4.677015   5.849684   5.031022   6.083258   7.044564
    26  H    5.358287   6.102341   6.250001   5.718234   7.448195
    27  N    4.618064   4.011281   5.607225   3.379722   4.549336
    28  C    3.845805   3.598682   4.673709   3.400977   4.238717
    29  P    5.165793   4.225346   5.975727   3.775151   4.233468
    30  P    5.486868   5.003499   6.663821   3.997711   5.811029
    31  C    3.603550   3.311781   4.088033   3.615342   3.557922
    32  C    3.999807   4.123423   4.895781   3.836699   5.065452
    33  N    4.268666   3.561242   4.746241   3.755352   3.389670
    34  N    4.832525   4.805234   5.921241   4.106327   5.835422
    35  C    3.461967   3.542657   3.455364   4.320599   3.631093
    36  C    4.084864   4.639010   4.758076   4.630047   5.656712
    37  P    4.767958   4.112901   4.788481   4.758535   3.399845
    38  P    5.665078   5.944213   6.707899   5.284932   7.130348
    39  N    4.050908   3.921146   3.759920   4.878159   3.512932
    40  C    3.517627   4.095675   3.211093   5.009196   4.385907
    41  N    4.956378   5.566370   5.723354   5.347016   6.717630
    42  C    4.001740   4.841596   4.264293   5.232862   5.732545
    43  P    4.669449   4.892747   3.851667   6.112180   4.420923
    44  N    4.131379   4.767060   3.358848   5.914328   4.783526
    45  C    3.771335   4.633609   3.615256   5.375395   5.250513
    46  P    5.689375   6.600413   6.171539   6.623491   7.747347
    47  N    4.850033   5.870155   5.011546   6.251768   6.837542
    48  P    4.971406   5.928810   4.044001   7.086069   6.125895
    49  N    4.489566   5.547458   3.995120   6.439479   6.105270
    50  P    5.425291   6.606285   5.131612   7.298364   7.394588
                    6          7          8          9         10
     6  C    0.000000
     7  C    3.801227   0.000000
     8  H    2.746210   2.154101   0.000000
     9  C    2.443373   4.968851   4.788125   0.000000
    10  H    3.842543   4.688398   5.410983   2.144406   0.000000
    11  H    3.124099   4.705355   4.998733   2.149267   1.777126
    12  C    4.269400   1.396074   3.394229   4.748209   3.886264
    13  H    4.540908   3.399445   4.919433   3.893704   2.207678
    14  N    1.367790   4.866082   4.077577   1.468931   3.386007
    15  C    1.387184   4.388772   2.681790   3.706136   5.226165
    16  H    4.676332   1.089859   2.477963   6.007095   5.749266
    17  H    3.324381   6.018713   5.829276   1.096283   2.506187
    18  H    2.865633   4.993161   4.870261   1.101780   2.478252
    19  H    5.357962   2.178236   4.316247   5.680643   4.540281
    20  C    2.377706   6.120070   5.038160   2.437457   4.497168
    21  C    2.425605   5.785474   4.016882   4.213742   6.050550
    22  H    2.153993   4.035830   2.046745   4.588928   5.862692
    23  C    2.787050   6.531805   5.038541   3.707920   5.735049
    24  H    3.335422   6.945685   6.040288   2.578565   4.574270
    25  H    3.405654   6.422218   4.457402   5.291323   7.119903
    26  H    3.876988   7.615542   6.062444   4.561702   6.627578
    27  N    4.732970   6.043521   6.331269   4.298023   3.806917
    28  C    3.948416   5.224950   5.268533   4.249987   4.120178
    29  P    5.714644   6.009684   6.865917   5.059312   3.782936
    30  P    5.152833   7.334131   7.281229   4.377946   4.431503
    31  C    4.183976   4.324334   4.762702   4.742626   4.228898
    32  C    3.586497   5.759687   5.260716   4.200897   4.738795
    33  N    5.077843   4.643441   5.591556   5.125580   4.018192
    34  N    4.190019   6.832974   6.312228   4.203057   4.898175
    35  C    4.222171   3.574829   3.974288   5.360542   4.999833
    36  C    3.422320   5.803618   4.826875   4.736869   5.652650
    37  P    5.911574   4.197251   5.637339   6.189773   4.880666
    38  P    4.623459   7.829811   6.859975   4.921879   6.156882
    39  N    5.126051   3.342105   4.380073   6.089017   5.336598
    40  C    4.045779   3.604425   3.333561   5.757476   5.845292
    41  N    3.944550   6.898753   5.676658   5.102540   6.369592
    42  C    3.516424   5.299078   4.089276   5.395030   6.281739
    43  P    5.775466   3.223079   4.156780   7.161755   6.618094
    44  N    4.869068   3.395651   3.317003   6.688888   6.666941
    45  C    3.780526   4.415798   3.415686   5.791420   6.354039
    46  P    4.584625   7.433422   5.809618   6.224825   7.698162
    47  N    4.103028   6.160118   4.570375   6.150718   7.335105
    48  P    5.395883   4.339754   3.502162   7.578693   7.940546
    49  N    4.466180   4.769456   3.440604   6.726136   7.423419
    50  P    4.931952   6.147647   4.407200   7.256299   8.358774
                   11         12         13         14         15
    11  H    0.000000
    12  C    4.217150   0.000000
    13  H    3.041390   2.168544   0.000000
    14  N    2.733380   5.039440   4.732355   0.000000
    15  C    4.363601   5.180582   5.797837   2.368934   0.000000
    16  H    5.785342   2.167926   4.318133   5.825268   5.047327
    17  H    2.437203   5.709984   4.574472   2.097415   4.463928
    18  H    3.078131   4.780193   4.040757   2.096515   4.059718
    19  H    5.042390   1.090387   2.495061   6.087840   6.258928
    20  C    3.738181   6.381905   6.045162   1.356962   2.742843
    21  C    5.115492   6.538262   6.961633   2.757931   1.404727
    22  H    5.023256   5.058235   6.058986   3.362600   1.089805
    23  C    4.844129   7.050764   7.057823   2.381715   2.412464
    24  H    3.961941   7.046189   6.405820   2.083736   3.831486
    25  H    6.167821   7.317875   7.928255   3.842822   2.164668
    26  H    5.732352   8.137665   8.078114   3.359577   3.416238
    27  N    2.297286   5.574968   4.495934   4.495828   5.624399
    28  C    2.445523   5.036569   4.504792   4.059738   4.641991
    29  P    2.941274   5.207124   3.849945   5.591291   6.760789
    30  P    2.981150   6.953837   5.750008   4.517362   5.942263
    31  C    2.912048   4.087667   3.889015   4.633295   4.893230
    32  C    2.974336   5.835336   5.481693   3.609511   3.979091
    33  N    3.110385   4.003113   3.354995   5.381793   5.986857
    34  N    3.199313   6.794120   6.097426   3.755276   4.644278
    35  C    3.884787   3.675395   4.231290   5.041789   4.684053
    36  C    3.988620   6.201978   6.279924   3.739054   3.300653
    37  P    4.433929   3.456530   3.383878   6.469262   6.760692
    38  P    4.583050   8.014693   7.516955   4.116462   4.660435
    39  N    4.599686   3.221251   4.004555   5.981818   5.681989
    40  C    4.686193   4.198885   5.196839   5.102383   4.087917
    41  N    4.749785   7.340058   7.319277   3.971547   3.600338
    42  C    4.772312   5.966099   6.524102   4.278345   3.031684
    43  P    6.019081   3.596135   5.099848   6.877938   6.047705
    44  N    5.755009   4.190114   5.648132   6.068242   4.810346
    45  C    5.028367   5.191692   6.116145   4.826712   3.405939
    46  P    6.198267   8.149067   8.500853   4.875114   3.705348
    47  N    5.883526   6.999314   7.690284   4.843982   3.181733
    48  P    7.002024   5.452750   7.095961   6.696293   4.886498
    49  N    6.230525   5.803551   7.063841   5.647164   3.754918
    50  P    7.084447   7.230428   8.361550   5.952723   3.832723
                   16         17         18         19         20
    16  H    0.000000
    17  H    7.071679   0.000000
    18  H    5.965775   1.783793   0.000000
    19  H    2.532060   6.594970   5.658562   0.000000
    20  C    7.027278   2.532956   2.962372   7.438001   0.000000
    21  C    6.429126   4.711847   4.577688   7.623300   2.389864
    22  H    4.499373   5.432099   4.879427   6.086268   3.832532
    23  C    7.310508   3.908526   4.125910   8.136690   1.376742
    24  H    7.899969   2.211091   3.073232   8.061430   1.090617
    25  H    6.932611   5.780811   5.595895   8.386133   3.384579
    26  H    8.376037   4.569540   4.946554   9.222352   2.133958
    27  N    7.020449   4.281774   5.319848   6.244765   5.148484
    28  C    6.136126   4.503557   5.253893   5.807716   4.766247
    29  P    6.933496   5.138068   5.903237   5.598390   6.476825
    30  P    8.353539   3.964050   5.449376   7.714171   4.728698
    31  C    5.144448   5.231497   5.588104   4.738535   5.584822
    32  C    6.647678   4.369594   5.243419   6.735404   3.966454
    33  N    5.459811   5.546933   5.891775   4.402016   6.429646
    34  N    7.785038   4.022784   5.291995   7.696162   3.772350
    35  C    4.192138   6.047504   6.061463   4.302482   6.044605
    36  C    6.563968   5.041126   5.670785   7.165473   3.896407
    37  P    4.759503   6.790599   6.748029   3.465843   7.654055
    38  P    8.722840   4.662981   5.905903   8.999377   3.557557
    39  N    3.772948   6.836535   6.650355   3.526339   7.112698
    40  C    4.020456   6.521025   6.397391   4.919259   5.970089
    41  N    7.661373   5.217142   6.013477   8.347407   3.643922
    42  C    5.874765   5.919587   6.180276   6.909094   4.572105
    43  P    3.120119   8.041291   7.568340   3.744531   7.992959
    44  N    3.430578   7.555370   7.175611   4.727595   6.999496
    45  C    4.831990   6.490722   6.466912   6.039728   5.420523
    46  P    8.022889   6.466739   6.968697   9.175436   4.398882
    47  N    6.623632   6.646288   6.848562   7.968867   4.838830
    48  P    4.122337   8.470799   7.986237   6.035463   7.428825
    49  N    4.915875   7.497517   7.267511   6.605247   6.157359
    50  P    6.325395   7.917750   7.790191   8.118575   6.087917
                   21         22         23         24         25
    21  C    0.000000
    22  H    2.155308   0.000000
    23  C    1.397016   3.396456   0.000000
    24  H    3.398432   4.921186   2.166298   0.000000
    25  H    1.089663   2.478301   2.170378   4.316327   0.000000
    26  H    2.177790   4.317371   1.090531   2.494602   2.534598
    27  N    6.237188   6.145927   6.007903   5.319503   7.163842
    28  C    5.353524   5.018178   5.393070   5.205780   6.199913
    29  P    7.586997   7.164492   7.443445   6.635143   8.541026
    30  P    6.175187   6.673549   5.600346   4.604860   7.089311
    31  C    5.883267   5.018353   6.173967   6.152301   6.684091
    32  C    4.387359   4.466853   4.366561   4.451263   5.166008
    33  N    7.022558   6.147811   7.203691   6.863926   7.888304
    34  N    4.731020   5.343606   4.303229   3.936383   5.541689
    35  C    5.826258   4.502119   6.419525   6.791834   6.486432
    36  C    3.558233   3.641536   3.840684   4.600074   4.131754
    37  P    7.975699   6.690106   8.362456   8.192188   8.771232
    38  P    4.231523   5.419170   3.634908   3.672255   4.832460
    39  N    6.934427   5.400501   7.564059   7.840320   7.590822
    40  C    5.201205   3.648251   6.046768   6.863524   5.670496
    41  N    3.301092   4.109626   3.315928   4.225302   3.733824
    42  C    3.507664   2.935090   4.265021   5.463174   3.842469
    43  P    7.352608   5.467345   8.234099   8.851624   7.825474
    44  N    6.002789   4.123937   7.005266   7.945925   6.347315
    45  C    4.274066   2.938329   5.218227   6.371668   4.584270
    46  P    3.090043   3.941928   3.520933   5.120861   2.970419
    47  N    3.227226   2.984459   4.140902   5.759188   3.171814
    48  P    5.895110   3.945820   7.114818   8.466700   5.936771
    49  N    4.536424   2.956321   5.713598   7.183785   4.553421
    50  P    4.071056   3.142907   5.287172   7.102048   3.710854
                   26         27         28         29         30
    26  H    0.000000
    27  N    6.745967   0.000000
    28  C    6.207362   1.369644   0.000000
    29  P    8.264616   1.751164   2.616162   0.000000
    30  P    6.102826   1.754443   2.617284   3.218844   0.000000
    31  C    7.098600   2.303085   1.400960   2.618372   3.895801
    32  C    5.069716   2.304977   1.401939   3.896625   2.618393
    33  N    8.138592   2.444441   2.299125   1.756993   4.195700
    34  N    4.798156   2.449351   2.301719   4.198722   1.757667
    35  C    7.393810   3.684417   2.588206   3.898602   5.190432
    36  C    4.500118   3.685901   2.587884   5.192893   3.898027
    37  P    9.369844   4.189757   3.886241   3.219110   5.937328
    38  P    3.767802   4.196652   3.889966   5.945059   3.220621
    39  N    8.580505   4.515899   3.679764   4.199045   6.173342
    40  C    6.991155   4.676543   3.384260   5.197274   5.940160
    41  N    3.676760   4.519201   3.680313   6.178803   4.198270
    42  C    4.988395   4.680423   3.386314   5.946678   5.198766
    43  P    9.257662   6.168511   5.180621   5.942632   7.753707
    44  N    7.967540   5.903977   4.672287   6.183530   7.256239
    45  C    6.061993   5.034878   3.667190   5.949030   5.946865
    46  P    3.668632   6.174529   5.182341   7.765218   5.943693
    47  N    4.664618   5.909249   4.674353   7.266302   6.185193
    48  P    7.977770   7.265205   5.943043   7.777322   8.409350
    49  N    6.494143   6.397634   5.031855   7.270063   7.265360
    50  P    5.830060   7.270171   5.945876   8.420819   7.776787
                   31         32         33         34         35
    31  C    0.000000
    32  C    2.586493   0.000000
    33  N    1.365718   3.679416   0.000000
    34  N    3.680221   1.366483   4.513809   0.000000
    35  C    1.400425   3.377377   2.299880   4.665981   0.000000
    36  C    3.378357   1.399102   4.667854   2.299599   3.654459
    37  P    2.606665   5.178498   1.747380   6.163644   2.607095
    38  P    5.182110   2.608189   6.168361   1.747510   5.925326
    39  N    2.297943   4.664458   2.442597   5.891823   1.365104
    40  C    2.590161   3.656938   3.683246   5.018934   1.402231
    41  N    4.666771   2.296326   5.896097   2.440729   5.016690
    42  C    3.661101   2.590806   5.025313   3.684216   3.378776
    43  P    3.884932   5.921541   4.187789   7.236925   2.606360
    44  N    3.682920   5.017903   4.517459   6.376725   2.301843
    45  C    3.385650   3.384401   4.674818   4.672578   2.589144
    46  P    5.926864   3.883169   7.247224   4.186348   5.923147
    47  N    5.023228   3.682511   6.386388   4.517590   4.665977
    48  P    5.193538   5.935881   6.179468   7.251234   3.896687
    49  N    4.676229   4.673163   5.905107   5.899565   3.684511
    50  P    5.942881   5.192616   7.263067   6.176931   5.191610
                   36         37         38         39         40
    36  C    0.000000
    37  P    5.925650   0.000000
    38  P    2.609339   7.746886   0.000000
    39  N    5.016791   1.746396   7.241098   0.000000
    40  C    3.376413   3.887412   5.923905   2.299636   0.000000
    41  N    1.365407   7.243168   1.747060   6.376807   4.663136
    42  C    1.403682   5.929591   3.889783   4.666968   2.583540
    43  P    5.921500   3.208944   8.376222   1.747311   2.605200
    44  N    4.663681   4.190908   7.237729   2.446132   1.364997
    45  C    2.589554   5.184250   5.183121   3.680694   1.399057
    46  P    2.605299   8.385831   3.209112   7.241133   5.173316
    47  N    2.302420   7.247378   4.192901   5.894080   3.673755
    48  P    5.187926   5.940506   7.750408   4.197035   2.615279
    49  N    3.683936   6.171632   6.166439   4.516684   2.300499
    50  P    3.897480   7.762908   5.938052   6.176774   3.892344
                   41         42         43         44         45
    41  N    0.000000
    42  C    2.300838   0.000000
    43  P    7.237052   5.176528   0.000000
    44  N    5.888974   3.674972   1.748060   0.000000
    45  C    3.680315   1.399828   3.883474   2.295477   0.000000
    46  P    1.746712   2.603850   7.740026   6.156753   3.882019
    47  N    2.447822   1.363449   6.160272   4.505418   2.294668
    48  P    6.169820   3.891672   3.213806   1.751401   2.613522
    49  N    4.514416   2.301113   4.187037   2.439955   1.367965
    50  P    4.196636   2.615711   5.936597   4.190668   2.614150
                   46         47         48         49         50
    46  P    0.000000
    47  N    1.748811   0.000000
    48  P    5.930993   4.189148   0.000000
    49  N    4.184893   2.440026   1.750114   0.000000
    50  P    3.212735   1.752076   3.215442   1.751368   0.000000
 Symmetry turned off by external request.
 Stoichiometry    C20H12N10P8(2+)
 Framework group  C1[X(C20H12N10P8)]
 Deg. of freedom   144
 Full point group                 C1      NOp   1
 Rotational constants (GHZ):      0.1088888      0.0971122      0.0715038
 Standard basis: def2SVP (5D, 7F)
   624 basis functions,  1130 primitive gaussians,   662 cartesian basis functions
   160 alpha electrons      160 beta electrons
       nuclear repulsion energy      6465.1824362846 Hartrees.
 NAtoms=   50 NActive=   50 NUniq=   50 SFac= 1.00D+00 NAtFMM=   60 NAOKFM=F Big=F
 Integral buffers will be    131072 words long.
 Raffenetti 2 integral format.
 Two-electron integral symmetry is turned off.
 Nuclear repulsion after empirical dispersion term =     6465.1064014834 Hartrees.
 One-electron integrals computed using PRISM.
   1 Symmetry operations used in ECPInt.
 ECPInt:  NShTT=   39340 NPrTT=  159940 LenC2=   35350 LenP2D=   91145.
 LDataN:  DoStor=T MaxTD1= 4 Len=   56
 NBasis=   624 RedAO= T EigKep=  5.69D-05  NBF=   624
 NBsUse=   624 1.00D-06 EigRej= -1.00D+00 NBFU=   624
 ExpMin= 1.05D-01 ExpMax= 8.00D+03 ExpMxC= 1.20D+03 IAcc=3 IRadAn=         5 AccDes= 0.00D+00
 Harris functional with IExCor= 4639 and IRadAn=       5 diagonalized for initial guess.
 HarFok:  IExCor= 4639 AccDes= 0.00D+00 IRadAn=         5 IDoV= 1 UseB2=F ITyADJ=14
 ICtDFT=  3500011 ScaDFX=  1.000000  1.000000  1.000000  1.000000
 FoFCou: FMM=F IPFlag=           0 FMFlag=      100000 FMFlg1=           0
         NFxFlg=           0 DoJE=T BraDBF=F KetDBF=T FulRan=T
         wScrn=  0.000000 ICntrl=     500 IOpCl=  0 I1Cent=   200000004 NGrid=           0
         NMat0=    1 NMatS0=      1 NMatT0=    0 NMatD0=    1 NMtDS0=    0 NMtDT0=    0
 Symmetry not used in FoFCou.
 Requested convergence on RMS density matrix=1.00D-08 within 128 cycles.
 Requested convergence on MAX density matrix=1.00D-06.
 Requested convergence on             energy=1.00D-06.
 No special actions if energy rises.
 Integral accuracy reduced to 1.0D-05 until final iterations.
 Initial convergence to 1.0D-05 achieved.  Increase integral accuracy.
 SCF Done:  E(RwB97XD) =  -4044.94374680     A.U. after   23 cycles
            NFock= 23  Conv=0.59D-08     -V/T= 2.0051
 DoSCS=F DFT=T ScalE2(SS,OS)=  1.000000  1.000000
 Range of M.O.s used for correlation:     1   624
 NBasis=   624 NAE=   160 NBE=   160 NFC=     0 NFV=     0
 NROrb=    624 NOA=   160 NOB=   160 NVA=   464 NVB=   464

 **** Warning!!: The largest alpha MO coefficient is  0.18960949D+02

   1 Symmetry operations used in ECPInt.
 ECPInt:  NShTT=   39340 NPrTT=  159940 LenC2=   35350 LenP2D=   91145.
 LDataN:  DoStor=T MaxTD1= 5 Len=  102
 Number of processors reduced to  10 by ecpmxn.
 Symmetrizing basis deriv contribution to polar:
 IMax=3 JMax=2 DiffMx= 0.00D+00
 G2DrvN: will do    51 centers at a time, making    1 passes.
 Calling FoFCou, ICntrl=  3107 FMM=F I1Cent=   0 AccDes= 0.00D+00.
 End of G2Drv F.D. properties file   721 does not exist.
 End of G2Drv F.D. properties file   722 does not exist.
 End of G2Drv F.D. properties file   788 does not exist.
          IDoAtm=11111111111111111111111111111111111111111111111111
          Differentiating once with respect to electric field.
                with respect to dipole field.
          Differentiating once with respect to nuclear coordinates.
          There are   153 degrees of freedom in the 1st order CPHF.  IDoFFX=6 NUNeed=     3.
    150 vectors produced by pass  0 Test12= 7.42D-14 1.00D-09 XBig12= 6.16D+02 1.08D+01.
 AX will form   150 AO Fock derivatives at one time.
    150 vectors produced by pass  1 Test12= 7.42D-14 1.00D-09 XBig12= 6.02D+01 1.48D+00.
    150 vectors produced by pass  2 Test12= 7.42D-14 1.00D-09 XBig12= 1.99D+00 1.91D-01.
    150 vectors produced by pass  3 Test12= 7.42D-14 1.00D-09 XBig12= 3.70D-02 2.55D-02.
    150 vectors produced by pass  4 Test12= 7.42D-14 1.00D-09 XBig12= 4.54D-04 2.25D-03.
    150 vectors produced by pass  5 Test12= 7.42D-14 1.00D-09 XBig12= 4.88D-06 2.07D-04.
    150 vectors produced by pass  6 Test12= 7.42D-14 1.00D-09 XBig12= 4.39D-08 1.80D-05.
    117 vectors produced by pass  7 Test12= 7.42D-14 1.00D-09 XBig12= 2.75D-10 1.30D-06.
      8 vectors produced by pass  8 Test12= 7.42D-14 1.00D-09 XBig12= 1.73D-12 1.03D-07.
      3 vectors produced by pass  9 Test12= 7.42D-14 1.00D-09 XBig12= 1.47D-14 5.94D-09.
      3 vectors produced by pass 10 Test12= 7.42D-14 1.00D-09 XBig12= 1.11D-15 2.85D-09.
      3 vectors produced by pass 11 Test12= 7.42D-14 1.00D-09 XBig12= 1.46D-15 5.32D-09.
      3 vectors produced by pass 12 Test12= 7.42D-14 1.00D-09 XBig12= 5.19D-16 2.49D-09.
      3 vectors produced by pass 13 Test12= 7.42D-14 1.00D-09 XBig12= 9.12D-16 3.05D-09.
      3 vectors produced by pass 14 Test12= 7.42D-14 1.00D-09 XBig12= 1.35D-15 3.31D-09.
      3 vectors produced by pass 15 Test12= 7.42D-14 1.00D-09 XBig12= 6.83D-16 2.52D-09.
      3 vectors produced by pass 16 Test12= 7.42D-14 1.00D-09 XBig12= 1.19D-15 2.98D-09.
      3 vectors produced by pass 17 Test12= 7.42D-14 1.00D-09 XBig12= 1.01D-15 3.12D-09.
      3 vectors produced by pass 18 Test12= 7.42D-14 1.00D-09 XBig12= 1.15D-15 3.05D-09.
      3 vectors produced by pass 19 Test12= 7.42D-14 1.00D-09 XBig12= 1.12D-15 2.89D-09.
      3 vectors produced by pass 20 Test12= 7.42D-14 1.00D-09 XBig12= 9.85D-16 2.03D-09.
      3 vectors produced by pass 21 Test12= 7.42D-14 1.00D-09 XBig12= 9.95D-16 2.16D-09.
      3 vectors produced by pass 22 Test12= 7.42D-14 1.00D-09 XBig12= 1.00D-15 2.06D-09.
      2 vectors produced by pass 23 Test12= 7.42D-14 1.00D-09 XBig12= 8.93D-16 2.03D-09.
 InvSVY:  IOpt=1 It=  1 EMax= 2.49D-14
 Solved reduced A of dimension  1219 with   153 vectors.
 Isotropic polarizability for W=    0.000000      494.10 Bohr**3.
 End of Minotr F.D. properties file   721 does not exist.
 End of Minotr F.D. properties file   722 does not exist.
 End of Minotr F.D. properties file   788 does not exist.

 **********************************************************************

            Population analysis using the SCF density.

 **********************************************************************

 Alpha  occ. eigenvalues --  -77.47179 -77.47147 -77.47018 -77.46976 -77.46407
 Alpha  occ. eigenvalues --  -77.46346 -77.46077 -77.45958 -14.81188 -14.80856
 Alpha  occ. eigenvalues --  -14.74403 -14.74216 -14.74198 -14.74175 -14.74132
 Alpha  occ. eigenvalues --  -14.73916 -14.73910 -14.73893 -10.64951 -10.64931
 Alpha  occ. eigenvalues --  -10.62884 -10.62612 -10.61841 -10.61590 -10.58913
 Alpha  occ. eigenvalues --  -10.58847 -10.58732 -10.58726 -10.58505 -10.58468
 Alpha  occ. eigenvalues --  -10.58380 -10.58373 -10.58273 -10.58237 -10.58204
 Alpha  occ. eigenvalues --  -10.57903 -10.57889 -10.57690  -6.92559  -6.92531
 Alpha  occ. eigenvalues --   -6.92403  -6.92369  -6.91830  -6.91766  -6.91506
 Alpha  occ. eigenvalues --   -6.91398  -5.07955  -5.07930  -5.07802  -5.07773
 Alpha  occ. eigenvalues --   -5.07518  -5.07493  -5.07364  -5.07336  -5.07249
 Alpha  occ. eigenvalues --   -5.07187  -5.07133  -5.07098  -5.06970  -5.06925
 Alpha  occ. eigenvalues --   -5.06922  -5.06817  -5.06813  -5.06757  -5.06487
 Alpha  occ. eigenvalues --   -5.06378  -5.06345  -5.06274  -5.06025  -5.05916
 Alpha  occ. eigenvalues --   -1.40063  -1.36717  -1.35721  -1.34063  -1.33864
 Alpha  occ. eigenvalues --   -1.29513  -1.29492  -1.23455  -1.23407  -1.21665
 Alpha  occ. eigenvalues --   -1.19337  -1.18896  -1.18643  -1.13152  -1.12998
 Alpha  occ. eigenvalues --   -1.12702  -1.08774  -1.08669  -1.04815  -1.04139
 Alpha  occ. eigenvalues --   -1.04089  -1.02175  -1.01246  -1.01208  -1.00029
 Alpha  occ. eigenvalues --   -0.98875  -0.98737  -0.95126  -0.93044  -0.92957
 Alpha  occ. eigenvalues --   -0.92911  -0.92009  -0.89445  -0.89386  -0.88837
 Alpha  occ. eigenvalues --   -0.88569  -0.88323  -0.88112  -0.86272  -0.85605
 Alpha  occ. eigenvalues --   -0.85100  -0.83177  -0.82751  -0.82296  -0.82110
 Alpha  occ. eigenvalues --   -0.81346  -0.81119  -0.80487  -0.79683  -0.78507
 Alpha  occ. eigenvalues --   -0.77795  -0.76822  -0.76788  -0.76743  -0.76514
 Alpha  occ. eigenvalues --   -0.76188  -0.76032  -0.75397  -0.75351  -0.73271
 Alpha  occ. eigenvalues --   -0.73152  -0.72866  -0.72633  -0.71603  -0.71399
 Alpha  occ. eigenvalues --   -0.71191  -0.70894  -0.67227  -0.66681  -0.66449
 Alpha  occ. eigenvalues --   -0.64503  -0.64121  -0.64018  -0.63308  -0.63196
 Alpha  occ. eigenvalues --   -0.62990  -0.62852  -0.62612  -0.62457  -0.62335
 Alpha  occ. eigenvalues --   -0.61899  -0.61214  -0.60348  -0.57677  -0.56487
 Alpha  occ. eigenvalues --   -0.47802  -0.46880  -0.46734  -0.45381  -0.44459
 Alpha virt. eigenvalues --   -0.29437  -0.24148  -0.23851  -0.21784  -0.21692
 Alpha virt. eigenvalues --   -0.21390  -0.21353  -0.20836  -0.18405  -0.15826
 Alpha virt. eigenvalues --   -0.14840  -0.14707  -0.14479  -0.14336  -0.13554
 Alpha virt. eigenvalues --   -0.12325  -0.11985  -0.11100  -0.10395  -0.09458
 Alpha virt. eigenvalues --   -0.09184  -0.09156  -0.08993  -0.08646  -0.08487
 Alpha virt. eigenvalues --   -0.08017  -0.07105  -0.05638  -0.05472  -0.05204
 Alpha virt. eigenvalues --   -0.04392  -0.04098  -0.03238  -0.03098  -0.02367
 Alpha virt. eigenvalues --   -0.02160  -0.01424  -0.01224  -0.00514  -0.00180
 Alpha virt. eigenvalues --    0.00416   0.00624   0.01170   0.02049   0.02143
 Alpha virt. eigenvalues --    0.02762   0.03365   0.04601   0.05396   0.06143
 Alpha virt. eigenvalues --    0.06233   0.06915   0.07518   0.07676   0.08779
 Alpha virt. eigenvalues --    0.09309   0.09573   0.09959   0.11101   0.11631
 Alpha virt. eigenvalues --    0.12127   0.12310   0.12892   0.13011   0.14078
 Alpha virt. eigenvalues --    0.14476   0.15144   0.16231   0.16516   0.16756
 Alpha virt. eigenvalues --    0.17477   0.18460   0.18914   0.18976   0.20121
 Alpha virt. eigenvalues --    0.20323   0.20823   0.20855   0.22340   0.22768
 Alpha virt. eigenvalues --    0.23655   0.23938   0.24106   0.24538   0.24652
 Alpha virt. eigenvalues --    0.25215   0.25551   0.26285   0.26515   0.27484
 Alpha virt. eigenvalues --    0.28632   0.28812   0.29571   0.30042   0.30651
 Alpha virt. eigenvalues --    0.30931   0.31010   0.31142   0.32191   0.32438
 Alpha virt. eigenvalues --    0.32564   0.33132   0.33290   0.34255   0.34595
 Alpha virt. eigenvalues --    0.34810   0.35315   0.35786   0.35810   0.36288
 Alpha virt. eigenvalues --    0.36443   0.36734   0.37449   0.37706   0.38044
 Alpha virt. eigenvalues --    0.38524   0.38867   0.39372   0.39547   0.39946
 Alpha virt. eigenvalues --    0.40005   0.40243   0.40409   0.40696   0.41213
 Alpha virt. eigenvalues --    0.41602   0.41670   0.42260   0.42706   0.43060
 Alpha virt. eigenvalues --    0.43307   0.43575   0.44483   0.44635   0.44656
 Alpha virt. eigenvalues --    0.45018   0.45409   0.45528   0.45847   0.46254
 Alpha virt. eigenvalues --    0.46437   0.46553   0.46769   0.47030   0.47414
 Alpha virt. eigenvalues --    0.47588   0.48287   0.48481   0.48583   0.48861
 Alpha virt. eigenvalues --    0.51144   0.51329   0.51514   0.51760   0.52362
 Alpha virt. eigenvalues --    0.52582   0.52810   0.52917   0.53503   0.54112
 Alpha virt. eigenvalues --    0.54684   0.54874   0.55154   0.55485   0.55503
 Alpha virt. eigenvalues --    0.56351   0.56997   0.57132   0.57528   0.57742
 Alpha virt. eigenvalues --    0.58645   0.58725   0.58864   0.59002   0.59804
 Alpha virt. eigenvalues --    0.60099   0.60797   0.61045   0.61483   0.62408
 Alpha virt. eigenvalues --    0.62767   0.63369   0.63914   0.64503   0.64863
 Alpha virt. eigenvalues --    0.65442   0.65944   0.66461   0.66980   0.68044
 Alpha virt. eigenvalues --    0.68575   0.69513   0.70372   0.70943   0.72046
 Alpha virt. eigenvalues --    0.72188   0.73231   0.73917   0.74800   0.75272
 Alpha virt. eigenvalues --    0.75639   0.76015   0.76405   0.77909   0.78207
 Alpha virt. eigenvalues --    0.79011   0.79632   0.80194   0.80281   0.80606
 Alpha virt. eigenvalues --    0.81084   0.82134   0.82208   0.83084   0.84161
 Alpha virt. eigenvalues --    0.84291   0.85023   0.85472   0.86029   0.86230
 Alpha virt. eigenvalues --    0.86554   0.86809   0.87249   0.88399   0.88934
 Alpha virt. eigenvalues --    0.89611   0.89855   0.90178   0.91749   0.92166
 Alpha virt. eigenvalues --    0.92459   0.93533   0.94939   0.95398   0.95687
 Alpha virt. eigenvalues --    0.96077   0.96697   0.97036   0.97796   0.98169
 Alpha virt. eigenvalues --    0.99089   0.99757   1.00024   1.00740   1.01243
 Alpha virt. eigenvalues --    1.02683   1.03457   1.04115   1.04768   1.05760
 Alpha virt. eigenvalues --    1.06339   1.06477   1.06985   1.07081   1.08101
 Alpha virt. eigenvalues --    1.08831   1.09986   1.10311   1.11082   1.11597
 Alpha virt. eigenvalues --    1.12656   1.13335   1.13439   1.15396   1.16548
 Alpha virt. eigenvalues --    1.18921   1.19462   1.21267   1.21710   1.22185
 Alpha virt. eigenvalues --    1.22340   1.23267   1.24674   1.25184   1.25803
 Alpha virt. eigenvalues --    1.26602   1.26993   1.27929   1.28706   1.29857
 Alpha virt. eigenvalues --    1.31787   1.32605   1.33617   1.35138   1.36612
 Alpha virt. eigenvalues --    1.36931   1.37948   1.39356   1.42115   1.43463
 Alpha virt. eigenvalues --    1.46384   1.48788   1.49815   1.52512   1.53082
 Alpha virt. eigenvalues --    1.54577   1.54979   1.55385   1.55640   1.56004
 Alpha virt. eigenvalues --    1.57392   1.57706   1.58282   1.59195   1.59760
 Alpha virt. eigenvalues --    1.60314   1.60744   1.61140   1.61499   1.62921
 Alpha virt. eigenvalues --    1.63449   1.63829   1.63908   1.64296   1.65154
 Alpha virt. eigenvalues --    1.65903   1.66781   1.67098   1.67759   1.68432
 Alpha virt. eigenvalues --    1.69242   1.70089   1.70592   1.70784   1.72223
 Alpha virt. eigenvalues --    1.72776   1.73573   1.74598   1.75000   1.76100
 Alpha virt. eigenvalues --    1.77017   1.77442   1.78290   1.78847   1.79192
 Alpha virt. eigenvalues --    1.79516   1.80243   1.80571   1.81021   1.81210
 Alpha virt. eigenvalues --    1.81694   1.82424   1.83825   1.84146   1.85345
 Alpha virt. eigenvalues --    1.86361   1.86997   1.88416   1.89068   1.89118
 Alpha virt. eigenvalues --    1.91902   1.92848   1.93118   1.94523   1.94963
 Alpha virt. eigenvalues --    1.95588   1.95730   1.96364   1.97021   1.99368
 Alpha virt. eigenvalues --    2.01132   2.01535   2.01850   2.03285   2.06343
 Alpha virt. eigenvalues --    2.07592   2.07760   2.09933   2.10455   2.10627
 Alpha virt. eigenvalues --    2.10999   2.11545   2.12679   2.13255   2.14431
 Alpha virt. eigenvalues --    2.15175   2.16204   2.18041   2.18328   2.18681
 Alpha virt. eigenvalues --    2.19132   2.19518   2.20541   2.21682   2.22574
 Alpha virt. eigenvalues --    2.23297   2.24383   2.26739   2.27386   2.27960
 Alpha virt. eigenvalues --    2.28559   2.28713   2.29562   2.30053   2.30807
 Alpha virt. eigenvalues --    2.31718   2.31891   2.33118   2.33933   2.34649
 Alpha virt. eigenvalues --    2.36243   2.37045   2.37294   2.38250   2.38678
 Alpha virt. eigenvalues --    2.39251   2.39666   2.42477   2.43010   2.44103
 Alpha virt. eigenvalues --    2.44941   2.46433   2.47393   2.49234   2.49495
 Alpha virt. eigenvalues --    2.49924   2.50558   2.51179   2.51594   2.51909
 Alpha virt. eigenvalues --    2.52112   2.53107   2.54033   2.55492   2.57127
 Alpha virt. eigenvalues --    2.57978   2.59170   2.59318   2.63094   2.64640
 Alpha virt. eigenvalues --    2.64862   2.66047   2.68735   2.68880   2.70889
 Alpha virt. eigenvalues --    2.74336   2.75698   2.77198   2.77508   2.78266
 Alpha virt. eigenvalues --    2.79992   2.80820   2.85849   2.86957   2.87513
 Alpha virt. eigenvalues --    2.87988   2.88944   2.89239   2.92856   2.95110
 Alpha virt. eigenvalues --    2.96806   2.96944   2.97307   2.98431   3.03815
 Alpha virt. eigenvalues --    3.04041   3.05475   3.21944   3.22182   3.25540
 Alpha virt. eigenvalues --    3.27995   3.41641   3.52250   3.53233
          Condensed to atoms (all electrons):
               1          2          3          4          5          6
     1  C    5.166993   0.385702   0.413684  -0.039508  -0.033046   0.177400
     2  N    0.385702   6.499568  -0.052417   0.262232   0.371871  -0.065753
     3  C    0.413684  -0.052417   5.034256   0.005599  -0.080778  -0.052776
     4  C   -0.039508   0.262232   0.005599   4.622806  -0.030824  -0.015503
     5  C   -0.033046   0.371871  -0.080778  -0.030824   4.828119   0.006243
     6  C    0.177400  -0.065753  -0.052776  -0.015503   0.006243   5.116050
     7  C    0.005127  -0.036029   0.349916   0.000084   0.015236   0.016292
     8  H   -0.024340   0.003973   0.425136  -0.000101  -0.000262  -0.028811
     9  C   -0.014148  -0.032679  -0.000405   0.414511   0.004817  -0.044005
    10  H    0.002505  -0.015425  -0.000104   0.387649  -0.004580   0.000699
    11  H   -0.004616  -0.025202  -0.000504   0.368138  -0.001458   0.002599
    12  C   -0.066035  -0.025066   0.045774   0.004735   0.417180   0.000553
    13  H    0.003583  -0.036728   0.000164  -0.003784   0.417491  -0.000272
    14  N   -0.065932  -0.014348   0.005586  -0.031385  -0.000371   0.392854
    15  C   -0.049944   0.005287  -0.016457  -0.000727   0.000119   0.443012
    16  H    0.011692   0.000028  -0.042677   0.000023   0.008940  -0.000302
    17  H    0.000574   0.003556   0.000023  -0.006769  -0.000126   0.003011
    18  H    0.002912  -0.003479  -0.000282  -0.021721   0.000417  -0.003189
    19  H   -0.000329   0.003707   0.009380  -0.000080  -0.042390   0.000017
    20  C    0.005955  -0.000330   0.000089   0.002949   0.000032  -0.036373
    21  C    0.015773  -0.000071   0.001496   0.000029  -0.000002  -0.003844
    22  H   -0.030919  -0.000060   0.007458  -0.000004   0.000018  -0.015011
    23  C    0.000646   0.000057  -0.000093  -0.000468  -0.000002  -0.057781
    24  H   -0.000264  -0.000009   0.000002   0.000472   0.000000   0.003647
    25  H   -0.000262   0.000000   0.000034   0.000000   0.000000   0.011781
    26  H    0.000015   0.000000  -0.000001   0.000005   0.000000  -0.000245
    27  N    0.000002   0.000032   0.000002  -0.012042   0.000053   0.000011
    28  C    0.003178  -0.001999   0.000070   0.013179  -0.000927   0.002784
    29  P   -0.000352   0.000190   0.000000   0.003673   0.000013  -0.000029
    30  P   -0.000089   0.000244   0.000001  -0.007120   0.000006  -0.000096
    31  C   -0.006665   0.006310  -0.000464  -0.000384  -0.008897   0.000727
    32  C    0.002289  -0.000926   0.000214   0.002128   0.000095  -0.006014
    33  N   -0.000012  -0.000715   0.000078   0.000771   0.002286  -0.000036
    34  N   -0.000079   0.000022  -0.000002  -0.000926   0.000001   0.000170
    35  C   -0.004361   0.002376   0.000414  -0.000677   0.002399  -0.001189
    36  C   -0.000373  -0.000067   0.000059  -0.000614   0.000018  -0.004163
    37  P    0.001479  -0.003803   0.000254  -0.000360   0.019818   0.000003
    38  P    0.000026  -0.000003  -0.000002   0.000050   0.000000   0.001702
    39  N   -0.000102  -0.000155  -0.000394   0.000017  -0.002397  -0.000015
    40  C    0.008149  -0.001551  -0.005403  -0.000057   0.001499  -0.000356
    41  N   -0.000064   0.000001  -0.000002   0.000006   0.000000  -0.000252
    42  C    0.000314   0.000077  -0.000614  -0.000195  -0.000018   0.001073
    43  P   -0.001653   0.000385  -0.006686   0.000019  -0.002706   0.000005
    44  N   -0.000943  -0.000007  -0.000991   0.000000   0.000042   0.000149
    45  C   -0.000308  -0.000065  -0.001666   0.000067  -0.000035   0.000347
    46  P   -0.000075   0.000000   0.000004   0.000004   0.000000  -0.001645
    47  N    0.000112   0.000000   0.000006   0.000000   0.000000  -0.000152
    48  P    0.000243   0.000000  -0.000550   0.000000  -0.000007  -0.000138
    49  N   -0.000212   0.000001  -0.000186   0.000000  -0.000001  -0.000157
    50  P   -0.000080   0.000000   0.000216   0.000000   0.000000   0.000873
               7          8          9         10         11         12
     1  C    0.005127  -0.024340  -0.014148   0.002505  -0.004616  -0.066035
     2  N   -0.036029   0.003973  -0.032679  -0.015425  -0.025202  -0.025066
     3  C    0.349916   0.425136  -0.000405  -0.000104  -0.000504   0.045774
     4  C    0.000084  -0.000101   0.414511   0.387649   0.368138   0.004735
     5  C    0.015236  -0.000262   0.004817  -0.004580  -0.001458   0.417180
     6  C    0.016292  -0.028811  -0.044005   0.000699   0.002599   0.000553
     7  C    4.847989  -0.038536   0.000027  -0.000100   0.000102   0.355199
     8  H   -0.038536   0.573867   0.000006   0.000004   0.000004   0.009552
     9  C    0.000027   0.000006   4.588119  -0.010900  -0.019038  -0.000730
[...]
 0.00331912,-0.00233904,-0.00052051,-0.00090478,-0.00184396,-0.00005787
 ,-0.02938552,-0.04480094,-0.00576443,-0.00143976,0.00018439,0.00026724
 ,-0.00261918,0.00205804,-0.00065716,-0.00178123,0.00418718,0.00006493,
 0.00722955,0.00103936,0.00151189,0.01554691,-0.03282045,0.00381457,-0.
 08476513,-0.19165384,-0.01853380,-0.00171789,-0.00259636,0.00029416,0.
 00014971,-0.00690131,-0.00126249,-0.02637098,0.02201968,-0.00543226,0.
 00341361,-0.06330607,0.00025867,0.05750084,0.45466556,0.00119996,-0.00
 005778,0.00012484,0.00004142,-0.00050556,0.00003458,-0.00043396,0.0001
 6048,-0.00013059,-0.00011649,0.00013532,-0.00003919,-0.00042884,0.0003
 1983,-0.00000330,-0.00147677,0.00071534,-0.00059314,0.00035105,0.00043
 741,-0.00017586,-0.00003637,-0.00003197,0.00005561,0.00022398,0.000345
 83,0.00022298,-0.00001546,-0.00000241,-0.00000373,0.00000341,-0.000035
 81,0.00006434,-0.00010114,-0.00077681,0.00002847,-0.00001041,0.0000087
 0,0.00001747,-0.00113410,-0.00115403,0.00012290,0.00026127,0.00052242,
 -0.00308086,0.00000358,-0.00000845,0.00006916,-0.00000681,-0.00001823,
 0.00001221,-0.00011702,-0.00010088,0.00001732,0.00000746,-0.00000567,0
 .00001571,0.00190990,0.00171138,0.00029167,0.00177973,0.00413509,-0.00
 597006,0.00007146,0.00053210,-0.00014248,-0.00010179,-0.00417961,0.000
 54637,0.00003734,-0.00004128,0.00001063,-0.00028361,0.00042200,0.00066
 612,-0.00000276,-0.00011912,0.00020263,0.00048429,-0.00079254,0.000529
 71,0.00007433,0.00005504,-0.00153588,0.00017244,-0.00048404,0.00002677
 ,-0.00075119,-0.00062041,-0.00015010,-0.00024112,0.00007764,0.00084407
 ,0.00038425,0.00207511,0.00313533,0.00015135,0.00086494,-0.00020695,-0
 .00123351,0.00045867,0.00198450,0.00006390,-0.00021027,-0.00196456,-0.
 00106639,-0.01158162,0.00285149,0.00014970,-0.00002291,0.00010273,-0.0
 0070277,0.00317031,-0.00190030,-0.00028125,0.00021133,0.00034250,0.000
 55460,0.00134066,0.00391165,-0.00048508,-0.00027646,0.00256228,-0.0378
 4690,-0.01966370,-0.06832577,0.00005568,-0.00015077,0.00010919,-0.0011
 6138,-0.00149563,0.00238564,-0.01463586,-0.00212683,0.00120674,-0.0207
 9823,0.01337163,-0.03088763,0.07961103,0.01930317,0.12064969,0.0000384
 3,-0.00048244,-0.00004463,-0.00030241,0.00032744,-0.00018327,-0.000391
 87,0.00047605,0.00024696,0.00004518,-0.00009221,-0.00001278,0.00043895
 ,-0.00013197,0.00022650,-0.00022322,-0.00011869,-0.00002500,0.00065605
 ,-0.00020387,0.00019885,-0.00001475,0.00029397,-0.00026947,-0.00001381
 ,0.00003450,0.00000259,0.00001564,-0.00000320,-0.00003634,0.00001031,0
 .00004296,-0.00004449,-0.00008619,0.00019372,-0.00014356,0.00001996,-0
 .00001800,-0.00004274,0.00024216,-0.00008613,0.00014824,0.00010336,0.0
 0032596,0.00007219,0.00005990,0.00014676,-0.00011709,-0.00001311,-0.00
 000761,-0.00001181,0.00001244,0.00001850,0.00000215,0.00002670,0.00000
 900,-0.00001032,-0.00016190,0.00031780,0.00011560,-0.00010767,0.000014
 10,-0.00036531,-0.00040050,-0.00001273,-0.00019386,0.00005571,-0.00031
 781,0.00015099,0.00000917,-0.00002496,-0.00002875,0.00006403,-0.000118
 72,0.00008117,-0.00000325,0.00000085,-0.00001476,0.00073067,0.00080457
 ,0.00005259,-0.00016790,-0.00049596,0.00006255,-0.00023452,-0.00054795
 ,-0.00002947,-0.00010460,-0.00007398,0.00004047,0.00031743,0.00134484,
 -0.00006308,0.00045832,0.00107431,-0.00000167,-0.00288561,0.00059140,-
 0.00012063,0.00083703,-0.00053800,0.00024317,-0.00464952,0.00240191,-0
 .00066519,0.00164971,-0.00397481,0.00022696,0.00115331,-0.00059156,-0.
 00006864,-0.00035228,0.00042024,-0.00031969,0.00362091,-0.00574714,-0.
 00017600,-0.00103235,-0.00906426,-0.00282457,-0.00315925,-0.00128036,-
 0.00059805,-0.00893876,0.00049051,-0.00261585,-0.01265131,-0.01018766,
 -0.00230742,-0.05982228,-0.06149169,-0.00796474,0.00215359,0.03574189,
 0.00402028,0.00311319,-0.00003450,0.00059484,0.00278919,0.01198278,0.0
 0177533,0.20267825,-0.00030066,-0.00049520,-0.00015782,0.00062731,0.00
 050741,0.00041521,-0.00000739,-0.00061358,-0.00006279,0.00008580,-0.00
 015345,0.00001947,-0.00004585,0.00095687,0.00027318,0.00030129,-0.0003
 3319,0.00011042,-0.00015575,0.00144300,-0.00101580,0.00023396,-0.00016
 711,0.00104429,-0.00021009,-0.00021617,-0.00001939,0.00003136,0.000012
 28,0.00003802,-0.00010522,0.00000873,-0.00008865,-0.00014043,-0.001185
 24,-0.00004344,0.00001765,-0.00004752,-0.00005247,0.00039927,0.0004771
 9,-0.00008698,-0.00003540,-0.00025519,-0.00013224,-0.00032596,-0.00025
 345,0.00025120,-0.00000569,0.00000622,-0.00000469,0.00005964,0.0000359
 3,0.00001287,0.00003603,0.00016111,-0.00004088,-0.00057823,-0.00026015
 ,0.00000028,-0.00019052,-0.00010188,0.00037078,0.00050910,0.00010137,0
 .00021586,0.00004340,0.00056041,-0.00030017,-0.00001253,-0.00001682,0.
 00001690,-0.00005449,0.00019293,-0.00012987,0.00002007,0.00000623,0.00
 002544,-0.00066582,0.00010923,-0.00008492,0.00244871,-0.00030770,0.000
 44749,0.00044505,-0.00066535,0.00018618,-0.00004224,0.00000004,-0.0000
 3780,-0.00120188,0.00654025,-0.00017295,-0.00198387,-0.00100136,-0.000
 35175,-0.00376250,-0.00067876,-0.00041297,0.00129125,0.00006216,0.0003
 7318,-0.00728803,-0.01279856,-0.00121808,-0.00082654,0.00482572,-0.000
 42972,0.00265683,0.00137999,-0.00048069,-0.00051338,-0.00032586,-0.000
 22604,0.01127268,-0.00525162,0.00073522,0.03829165,-0.04646426,-0.0006
 4730,0.00112407,-0.00088858,0.00025236,0.01023141,-0.00928425,0.001490
 59,-0.03763456,0.00186066,-0.00250275,-0.00039162,-0.10364541,-0.00696
 569,-0.01245894,-0.04645387,-0.00652308,-0.00236154,0.00140234,-0.0009
 1814,-0.00616124,-0.00573932,-0.00095301,-0.01902096,0.26717916,0.0001
 3241,0.00082472,0.00027834,-0.00050444,-0.00044856,0.00004279,-0.00019
 430,-0.00019309,-0.00003210,-0.00000089,0.00004515,-0.00008855,0.00024
 699,0.00021402,0.00017676,0.00000916,-0.00004459,-0.00001466,0.0001894
 4,0.00016446,0.00017709,0.00007025,-0.00072978,0.00023407,0.00000658,-
 0.00000809,-0.00001091,0.00000256,0.00001153,-0.00000904,-0.00001904,-
 0.00003765,0.00001224,0.00005203,-0.00034648,0.00011918,-0.00000012,-0
 .00001225,-0.00002154,-0.00002112,-0.00002834,0.00001065,0.00005505,-0
 .00006388,0.00023882,-0.00003521,-0.00018869,-0.00005795,0.00000070,-0
 .00000031,0.00000263,-0.00000125,0.00000592,-0.00000292,0.00002057,0.0
 0002573,-0.00003275,0.00003490,0.00005318,0.00000968,-0.00019692,0.000
 04189,-0.00000784,0.00016865,0.00001845,-0.00002955,-0.00001098,-0.000
 13793,0.00004056,-0.00000169,-0.00000322,-0.00001081,-0.00000222,0.000
 03401,-0.00003446,-0.00000335,-0.00000272,0.00000291,0.00014018,0.0001
 2326,-0.00000117,0.00031587,-0.00019313,0.00009741,0.00000589,-0.00024
 674,-0.00008984,-0.00004673,0.00004729,-0.00004450,-0.00038605,0.00097
 258,0.00111245,-0.00017291,0.00000199,-0.00002882,-0.00073962,0.000032
 27,-0.00005058,0.00017586,-0.00008269,0.00004652,-0.00152243,-0.001328
 42,0.00207612,-0.00002942,0.00009937,0.00124199,0.00036421,-0.00002000
 ,0.00027603,-0.00008231,0.00017158,-0.00012944,0.00153747,-0.00106757,
 -0.00137392,0.00350893,-0.00628254,0.00939739,-0.00015637,-0.00049884,
 -0.00011703,-0.00033901,-0.00102179,0.00164180,-0.00532904,-0.00083253
 ,0.00192041,-0.00233908,-0.01171218,-0.03018266,-0.00246502,-0.0023011
 7,0.00906961,-0.00007809,0.00023958,0.00029726,0.00010875,0.00059045,-
 0.00157069,0.02017881,0.01622123,0.03271104,-0.00042807,0.00062540,0.0
 0004430,0.00034197,-0.00026979,0.00033926,0.00075692,-0.00073886,-0.00
 046866,-0.00001187,0.00015248,-0.00000384,-0.00046774,0.00042671,-0.00
 022117,0.00078440,-0.00090580,0.00048257,-0.00096517,0.00052111,-0.001
 04103,0.00043688,-0.00059031,0.00067645,-0.00027287,-0.00055305,-0.000
 10069,0.00004173,-0.00000928,0.00004182,-0.00008280,-0.00002777,-0.000
 05251,-0.00007244,-0.00049959,0.00017913,-0.00003151,0.00002387,-0.000
 00816,0.00118636,0.00077979,-0.00010109,-0.00007201,-0.00016929,0.0003
 9119,-0.00028039,-0.00029586,0.00025765,0.00000267,0.00002360,0.000024
 62,0.00009771,0.00010738,-0.00001982,0.00001869,0.00003136,-0.00004786
 ,-0.00169057,-0.00070494,0.00011026,-0.00138386,-0.00062943,0.00142791
 ,0.00129066,0.00112895,-0.00070324,0.00026088,0.00154130,-0.00083952,-
 0.00005743,-0.00003039,0.00001167,-0.00026513,0.00070458,-0.00064177,0
 .00001446,-0.00004546,0.00005491,-0.00184849,0.00069819,-0.00029164,0.
 00037661,-0.00020309,-0.00007236,0.00054914,0.00055990,0.00017469,0.00
 075993,-0.00070919,0.00005614,-0.00050747,0.00113239,0.00002396,-0.001
 08588,-0.00158140,0.00029979,0.00209397,-0.00123716,-0.00005274,0.0022
 9100,0.00046618,0.00060846,-0.00624282,-0.00058003,-0.00078393,-0.0045
 3351,0.00428809,-0.00136313,-0.00063700,0.00136635,0.00006755,-0.00047
 350,-0.00235878,-0.00027771,-0.00333207,0.00087499,-0.00034982,0.00040
 025,-0.03167406,-0.00304383,-0.00397221,0.00023645,-0.00161904,0.02007
 134,0.01584759,0.00366795,-0.00356179,-0.00408917,0.00061615,-0.032726
 43,0.00098557,-0.00480457,-0.13111534,-0.02209285,-0.01240532,-0.00439
 324,0.00516858,-0.00207908,-0.02776735,0.00367031,-0.00388540,-0.09558
 020,0.00461920,-0.01047861,0.40247773,-0.00034689,-0.00082221,0.000083
 63,-0.00109688,0.00093090,-0.00054408,-0.00028054,0.00067340,0.0001602
 2,0.00021039,-0.00018682,0.00006371,0.00107999,-0.00103879,0.00018461,
 0.00016753,-0.00098014,0.00035624,0.00071291,-0.00114702,0.00115598,-0
 .00008058,0.00072503,-0.00045617,-0.00023747,-0.00034246,-0.00005912,0
 .00002869,-0.00002817,-0.00006878,0.00000780,0.00019861,-0.00013378,-0
 .00004324,0.00157437,-0.00034746,-0.00000731,-0.00002027,-0.00004582,0
 .00120795,0.00082873,0.00001377,0.00007203,-0.00010976,-0.00035603,0.0
 0022578,0.00023489,-0.00027394,-0.00002915,0.00001425,-0.00000164,0.00
 009293,0.00011119,0.00000163,-0.00002251,-0.00008251,0.00002764,-0.001
 33522,-0.00066725,-0.00008501,-0.00096606,-0.00056319,0.00088944,0.000
 24782,0.00108241,-0.00020072,0.00041009,0.00137946,-0.00066969,0.00000
 073,-0.00001678,-0.00000403,-0.00009989,0.00021095,-0.00024886,0.00000
 518,-0.00005638,0.00004149,0.00062392,0.00229569,0.00001219,-0.0000791
 8,-0.00052886,-0.00014755,-0.00100069,0.00021606,-0.00027574,0.0008766
 4,0.00004437,0.00013310,0.00016319,-0.00261580,0.00037937,-0.00082462,
 -0.00196340,0.00033770,-0.00186694,0.00005077,0.00003421,0.00104432,-0
 .00054886,0.00037168,-0.00027303,0.00867028,-0.00092486,0.00461418,0.0
 0693313,-0.00027880,-0.00153271,-0.00288276,0.00008522,0.00077809,-0.0
 0274932,0.00051750,0.00432120,-0.00490378,-0.00014700,-0.05190734,-0.0
 3868004,-0.00934824,-0.00388822,-0.00316876,-0.00105877,0.03509022,-0.
 05942260,0.00167317,0.01083046,0.00158466,-0.00034565,-0.01315878,-0.0
 0501392,-0.00147522,-0.02209388,-0.29237420,-0.02346569,-0.00838811,0.
 00277604,-0.00328005,0.01958078,-0.01086250,0.00392189,0.06492252,-0.0
 6942500,0.00714724,0.01287347,0.52241409,-0.00042739,-0.00005961,-0.00
 014562,0.00029398,0.00025439,0.00005086,0.00025066,-0.00019639,-0.0001
 7222,0.00005295,-0.00002620,0.00003867,-0.00025841,-0.00006614,-0.0001
 4812,0.00025247,-0.00035444,0.00003815,-0.00030159,0.00009733,-0.00011
 701,-0.00006409,-0.00000897,0.00042105,-0.00015326,-0.00013376,0.00004
 228,0.00000996,-0.00000502,0.00000370,-0.00001411,0.00001305,-0.000047
 91,0.00005544,0.00012943,-0.00002528,-0.00000998,0.00001115,0.00002135
 ,0.00000003,0.00057066,-0.00012885,-0.00009258,-0.00024540,-0.00010215
 ,-0.00010634,-0.00016098,0.00015489,0.00000801,0.00001700,-0.00000704,
 0.00003318,0.00001058,0.00000910,-0.00000347,-0.00000056,-0.00002661,-
 0.00004669,-0.00024797,-0.00003747,-0.00003679,0.00017694,0.00019881,0
 .00019202,0.00057635,0.00000258,0.00003979,0.00035502,-0.00030420,-0.0
 0000497,0.00001584,0.00003122,-0.00006399,-0.00012643,0.00023334,0.000
 01135,-0.00000855,-0.00001595,-0.00019287,0.00045625,-0.00017054,-0.00
 007708,-0.00015080,0.00040101,-0.00000783,0.00006640,-0.00003446,0.000
 19064,-0.00020874,0.00001189,0.00000389,0.00000498,-0.00165434,0.00024
 952,-0.00034440,-0.00140305,-0.00014023,-0.00018150,0.00037532,0.00064
 455,-0.00002944,0.00059370,-0.00120703,0.00046278,0.00302809,-0.001037
 93,0.00112898,0.00291515,-0.00013688,-0.00013287,0.00005365,-0.0001778
 8,-0.00054426,-0.00004289,0.00009830,-0.00097756,0.00282355,-0.0048897
 1,-0.00803328,0.00235729,-0.00204634,-0.00059823,0.00232611,0.00472735
 ,-0.00234794,0.00373306,0.00058182,-0.00001266,-0.00148640,-0.00552077
 ,0.00073400,0.00262818,-0.01170404,-0.02336145,-0.06507255,-0.00080792
 ,0.00142622,-0.00212907,-0.00364823,0.00139688,0.00297288,-0.00331010,
 -0.00343608,-0.03054329,0.04634553,0.03554676,0.11034702,0.00035266,0.
 00006041,-0.00007526,0.00014525,-0.00026598,-0.00011190,-0.00019116,-0
 .00005021,-0.00006908,-0.00006121,0.00007733,-0.00004381,-0.00025688,-
 0.00011925,-0.00014175,-0.00060850,0.00017900,-0.00027597,0.00007575,0
 .00004778,0.00026199,-0.00023001,0.00017400,-0.00006926,0.00008755,0.0
 0022621,0.00012587,-0.00002362,0.00000021,0.00000324,0.00004879,-0.000
 03074,0.00006434,0.00006409,0.00001481,-0.00000759,-0.00000799,0.00001
 421,0.00004129,-0.00081879,-0.00013873,0.00003930,0.00006931,-0.000716
 42,-0.00012555,0.00008493,0.00009567,-0.00004046,0.00001836,0.00000109
 ,0.00000819,-0.00004754,-0.00006315,0.00000385,-0.00001079,-0.00001687
 ,0.00002788,0.00105474,0.00036957,-0.00006274,0.00059454,0.00086020,-0
 .00051841,-0.00045429,-0.00037689,0.00097477,-0.00016940,-0.00093714,0
 .00032812,0.00002573,0.00001502,0.00001811,0.00006567,-0.00038972,0.00
 035895,0.00001243,0.00003300,0.00001202,0.00063227,-0.00106449,0.00016
 846,-0.00065676,0.00072342,-0.00016431,-0.00002344,0.00002641,-0.00005
 165,-0.00029396,0.00050502,-0.00003381,0.00062342,-0.00155597,0.000145
 80,0.00070654,0.00029123,-0.00006525,0.00040943,0.00046940,0.00006651,
 -0.00167783,-0.00026983,-0.00051569,0.00348185,0.00450916,0.00025478,-
 0.00387016,-0.00462816,-0.00132560,-0.00021828,-0.00038697,0.00025893,
 0.00051673,0.00104158,0.00008282,-0.00296981,0.00174594,-0.00019502,-0
 .01214666,0.00012569,-0.00120665,0.00108616,0.00325657,0.00081764,-0.0
 1218078,-0.00080361,-0.00257897,0.00395470,-0.00057180,0.00006938,0.00
 052180,-0.01298730,-0.00096539,-0.00631897,-0.04548519,-0.00693176,0.0
 0119257,0.01039188,0.00079518,-0.04512834,0.04561904,-0.00201284,-0.03
 000234,0.02173561,-0.00216899,-0.11039416,-0.05062958,-0.01755290,0.21
 293641,-0.00008211,-0.00035069,-0.00005273,-0.00017872,0.00036485,-0.0
 0015815,-0.00018649,0.00009284,0.00005573,0.00009959,-0.00019342,-0.00
 001871,0.00037508,-0.00023536,0.00009688,-0.00008222,-0.00039645,-0.00
 036283,0.00024611,-0.00018566,0.00027377,-0.00021702,0.00018148,0.0000
 2344,-0.00006347,0.00010873,0.00009508,-0.00000276,0.00001007,-0.00000
 147,0.00006145,0.00003074,-0.00006227,0.00003967,0.00032044,-0.0000816
 2,0.00000800,-0.00002083,0.00000149,-0.00061903,0.00017822,0.00012789,
 0.00026595,-0.00102774,0.00010706,0.00005577,0.00010101,-0.00006407,-0
 .00001236,-0.00001385,-0.00003456,0.00000789,-0.00003310,0.00001842,-0
 .00002248,0.00000273,0.00002785,0.00062717,0.00142918,0.00043011,0.000
 64445,0.00137812,-0.00168808,-0.00101760,-0.00007423,0.00101638,-0.000
 27151,-0.00186253,0.00061294,0.00001638,-0.00005191,-0.00005248,0.0003
 2511,-0.00015138,0.00057574,-0.00001776,0.00013245,-0.00014751,0.00033
 144,0.00036577,-0.00001124,-0.00254758,0.00019720,-0.00040729,0.000148
 37,0.00003192,-0.00002072,-0.00058860,-0.00085394,0.00004878,0.0015752
 2,-0.00121434,0.00023243,0.00307900,0.00628086,0.00036302,-0.00149667,
 0.00023550,-0.00005576,0.00440786,-0.00167507,0.00120048,0.00139823,0.
 00326531,0.00002983,0.00405582,-0.01334895,0.00104167,0.00066237,-0.00
 009081,-0.00002115,-0.00229673,0.00142772,-0.00151426,-0.00049139,-0.0
 0161927,-0.00010490,-0.00898476,-0.00644944,-0.00170167,-0.01264264,-0
 .00255682,-0.00257301,-0.04678403,-0.03478129,-0.01233060,0.00197563,0
 .00114416,-0.00015752,0.00393837,-0.00307193,0.00065348,0.00135105,-0.
 03583312,-0.00203554,0.03591870,-0.01305771,0.00824980,-0.01571968,-0.
 11677649,-0.00888046,-0.00730940,0.01919962,0.00074725,0.01114179,-0.0
 5174770,-0.00145140,0.02887853,0.25119513,0.00037442,-0.00007160,0.000
 04499,0.00007801,-0.00012189,-0.00004441,-0.00023962,0.00016039,0.0001
 0419,-0.00004696,0.00001116,-0.00003274,-0.00013379,0.00004853,-0.0000
 2992,-0.00061045,0.00105934,-0.00004441,0.00021759,0.00005712,0.000112
 08,-0.00008617,0.00007393,-0.00012628,0.00010463,0.00016332,-0.0000637
 9,-0.00001612,0.00000506,-0.00000305,0.00003910,-0.00002135,0.00003103
 ,-0.00001288,-0.00016645,-0.00000785,0.00000454,0.00000455,0.00000596,
 0.00028241,-0.00075281,0.00015859,0.00033353,0.00105882,-0.00017095,0.
 00003335,0.00003093,-0.00002072,0.00000559,-0.00001098,-0.00001290,-0.
 00003841,-0.00001116,-0.00000390,0.00000251,-0.00000444,0.00001338,0.0
 0007245,0.00040656,-0.00002757,0.00023792,0.00062051,-0.00002269,-0.00
 034163,-0.00104526,-0.00003433,-0.00014946,-0.00051086,0.00025020,0.00
 001030,-0.00000755,0.00000377,0.00004755,-0.00050726,0.00010811,-0.000
 00385,0.00002893,-0.00001362,0.00004594,-0.00009339,-0.00002074,-0.000
 43205,0.00005800,-0.00004501,0.00004947,0.00006459,-0.00001724,-0.0000
 6370,-0.00005406,-0.00008064,0.00024110,-0.00044807,0.00009237,0.00029
 202,0.00061653,0.00122015,0.00005054,0.00004153,-0.00001213,0.00009897
 ,-0.00017543,-0.00004957,0.00063104,0.00116993,0.00134969,-0.00088930,
 -0.00186889,0.00228467,0.00005597,0.00008102,-0.00001159,-0.00017714,0
 .00016489,0.00025360,-0.00080015,0.00010335,-0.00018179,-0.00317403,-0
 .00068410,0.00156264,-0.00049410,0.00054973,-0.00146090,-0.00849653,-0
 .00342826,0.00739930,0.00096484,-0.00004969,0.00037905,0.00032405,-0.0
 0283676,-0.00192299,-0.00264339,-0.01280297,0.00716015,0.00237376,0.00
 154433,0.00277475,-0.00452862,0.00348944,-0.02943707,-0.00583100,0.004
 99599,0.00325128,-0.01014544,-0.00889570,-0.03199787,0.03238321,0.0179
 6046,0.03733674\\0.00000918,-0.00001893,0.00000260,-0.00002316,-0.0000
 0521,-0.00001529,-0.00002507,0.00001673,-0.00000271,-0.00002324,-0.000
 01007,-0.00000586,0.00002636,-0.00000501,0.00001184,-0.00000503,-0.000
 00650,-0.00000473,0.00002910,-0.00001150,0.00001320,0.00000563,-0.0000
 0231,0.00000510,0.00001761,0.00000247,-0.00000535,-0.00000114,-0.00000
 168,0.00000064,0.00002703,0.00003637,0.00000093,-0.00000546,0.00001843
 ,-0.00001265,0.00000112,-0.00000135,-0.00000618,0.00001266,-0.00001287
 ,0.00001886,0.00001484,0.00000481,-0.00000469,-0.00000338,0.00000089,-
 0.00000816,-0.00000494,-0.00000483,0.00000345,-0.00000655,0.00000019,-
 0.00000443,0.00000090,0.00000100,0.00000476,-0.00000948,0.00000612,-0.
 00000908,-0.00001834,0.00000776,-0.00000144,-0.00000093,0.00000272,-0.
 00000030,0.00001296,-0.00001830,-0.00001266,-0.00000182,-0.00000375,0.
 00000086,0.00000214,0.00000057,-0.00000621,-0.00000017,0.00000027,-0.0
 0000112,-0.00000886,0.00002745,0.00000038,-0.00000730,-0.00002166,-0.0
 0001903,-0.00001115,0.00002097,-0.00001070,-0.00001689,-0.00001053,-0.
 00000279,0.00001000,0.00000855,0.00001933,0.00000587,0.00000390,0.0000
 1823,0.00001752,-0.00002701,-0.00000385,0.00002588,0.00001412,0.000005
 92,-0.00000425,0.00000764,0.00000230,-0.00002274,-0.00000191,-0.000016
 25,-0.00001021,-0.00000325,0.00000368,-0.00001842,0.00001021,-0.000008
 63,0.00000985,0.00001041,0.00000147,-0.00000057,0.00000109,-0.00000703
 ,0.00000812,-0.00001503,0.00001377,-0.00001371,-0.00000286,-0.00000758
 ,-0.00000413,-0.00000351,0.00000807,-0.00000057,-0.00000294,0.00000707
 ,0.00000076,-0.00000990,0.00001104,0.00000267,0.00000257,0.00000625,-0
 .00000029,0.00000174,0.00001393,-0.00000051,0.00000470,0.00000119,0.00
 001581,-0.00000095,0.00000977,-0.00000771,-0.00000985,-0.00000792\\\@


 IT IS WELL TO REMEMBER THAT MAN IS A PART OF NATURE AND THAT HIS WORKS,
 WHATEVER THEY MAY BE, ARE NO MORE "UNNATURAL" THAN 
 THE FLIGHT OF AN EAGLE OR THE PASSAGE OF A TORNADO.

                                    -- CHARLES MCCARRY IN "THE GREAT SOUTHWEST"
 Job cpu time:       1 days  0 hours 30 minutes 16.2 seconds.
 File lengths (MBytes):  RWF=   2480 Int=      0 D2E=      0 Chk=     25 Scr=      1
 Normal termination of Gaussian 09 at Wed Jun 12 16:55:17 2019.
