 Entering Gaussian System, Link 0=g09
 Input=intmodes_049.gjf
 Output=intmodes_049.log
 Initial command:
 /opt/local/g09/l1.exe "/home/scratch/oscar/Gau-30394.inp" -scrdir="/home/scratch/oscar/"
 Default is to use a total of  16 processors:
                               16 via shared-memory
                                1 via Linda
 Entering Link 1 = /opt/local/g09/l1.exe PID=     30395.
  
 Copyright (c) 1988,1990,1992,1993,1995,1998,2003,2009,2013,
            Gaussian, Inc.  All Rights Reserved.
  
 This is part of the Gaussian(R) 09 program.  It is based on
 the Gaussian(R) 03 system (copyright 2003, Gaussian, Inc.),
 the Gaussian(R) 98 system (copyright 1998, Gaussian, Inc.),
 the Gaussian(R) 94 system (copyright 1995, Gaussian, Inc.),
 the Gaussian 92(TM) system (copyright 1992, Gaussian, Inc.),
 the Gaussian 90(TM) system (copyright 1990, Gaussian, Inc.),
 the Gaussian 88(TM) system (copyright 1988, Gaussian, Inc.),
 the Gaussian 86(TM) system (copyright 1986, Carnegie Mellon
 University), and the Gaussian 82(TM) system (copyright 1983,
 Carnegie Mellon University). Gaussian is a federally registered
 trademark of Gaussian, Inc.
  
 This software contains proprietary and confidential information,
 including trade secrets, belonging to Gaussian, Inc.
  
 This software is provided under written license and may be
 used, copied, transmitted, or stored only in accord with that
 written license.
  
 The following legend is applicable only to US Government
 contracts under FAR:
  
                    RESTRICTED RIGHTS LEGEND
  
 Use, reproduction and disclosure by the US Government is
 subject to restrictions as set forth in subparagraphs (a)
 and (c) of the Commercial Computer Software - Restricted
 Rights clause in FAR 52.227-19.
  
 Gaussian, Inc.
 340 Quinnipiac St., Bldg. 40, Wallingford CT 06492
  
  
 ---------------------------------------------------------------
 Warning -- This program may not be used in any manner that
 competes with the business of Gaussian, Inc. or will provide
 assistance to any competitor of Gaussian, Inc.  The licensee
 of this program is prohibited from giving any competitor of
 Gaussian, Inc. access to this program.  By using this program,
 the user acknowledges that Gaussian, Inc. is engaged in the
 business of creating and licensing software in the field of
 computational chemistry and represents and warrants to the
 licensee that it is not a competitor of Gaussian, Inc. and that
 it will not use this program in any manner prohibited above.
 ---------------------------------------------------------------
  

 Cite this work as:
 Gaussian 09, Revision D.01,
 M. J. Frisch, G. W. Trucks, H. B. Schlegel, G. E. Scuseria, 
 M. A. Robb, J. R. Cheeseman, G. Scalmani, V. Barone, B. Mennucci, 
 G. A. Petersson, H. Nakatsuji, M. Caricato, X. Li, H. P. Hratchian, 
 A. F. Izmaylov, J. Bloino, G. Zheng, J. L. Sonnenberg, M. Hada, 
 M. Ehara, K. Toyota, R. Fukuda, J. Hasegawa, M. Ishida, T. Nakajima, 
 Y. Honda, O. Kitao, H. Nakai, T. Vreven, J. A. Montgomery, Jr., 
 J. E. Peralta, F. Ogliaro, M. Bearpark, J. J. Heyd, E. Brothers, 
 K. N. Kudin, V. N. Staroverov, T. Keith, R. Kobayashi, J. Normand, 
 K. Raghavachari, A. Rendell, J. C. Burant, S. S. Iyengar, J. Tomasi, 
 M. Cossi, N. Rega, J. M. Millam, M. Klene, J. E. Knox, J. B. Cross, 
 V. Bakken, C. Adamo, J. Jaramillo, R. Gomperts, R. E. Stratmann, 
 O. Yazyev, A. J. Austin, R. Cammi, C. Pomelli, J. W. Ochterski, 
 R. L. Martin, K. Morokuma, V. G. Zakrzewski, G. A. Voth, 
 P. Salvador, J. J. Dannenberg, S. Dapprich, A. D. Daniels, 
 O. Farkas, J. B. Foresman, J. V. Ortiz, J. Cioslowski, 
 and D. J. Fox, Gaussian, Inc., Wallingford CT, 2013.
 
 ******************************************
 Gaussian 09:  EM64L-G09RevD.01 24-Apr-2013
                14-May-2018 
 ******************************************
 ----------------------------------------------------------------------
 #p freq=intmodes m062x/def2tzvpp nosymm integral=ultrafinegrid scf=tig
 ht
 ----------------------------------------------------------------------
 1/10=4,18=20,30=1,38=1/1,3;
 2/9=110,12=2,15=1,17=6,18=5,40=1/2;
 3/5=44,7=202,11=2,16=1,25=1,30=1,71=2,74=-55,75=-5,140=1/1,2,3;
 4//1;
 5/5=2,32=2,38=5,98=1/2;
 8/6=4,10=90,11=11/1;
 11/6=1,8=1,9=11,15=111,16=1,31=1/1,2,10;
 10/6=1,31=1/2;
 6/7=2,8=2,9=2,10=2,18=1,28=1/1;
 7/8=21,10=1,25=1,30=1/1,2,3,16;
 1/10=4,18=20,30=1/3;
 99//99;
 Leave Link    1 at Mon May 14 00:32:36 2018, MaxMem=           0 cpu:         1.3
 (Enter /opt/local/g09/l101.exe)
 ----------------
 049.xyz intmodes
 ----------------
 Symbolic Z-matrix:
 Charge =  2 Multiplicity = 1
 C                    -0.08579  -3.05435   1.293 
 N                    -1.00157  -4.12188   1.69578 
 C                    -1.73755  -4.02135   2.81083 
 N                    -1.28967  -3.2681    3.80668 
 C                     0.05677  -2.71945   3.84949 
 C                     0.78295  -2.63377   2.48055 
 N                    -2.89495  -4.65918   2.9196 
 N                     1.92551  -3.52932   2.67318 
 N                     0.95357  -3.57306   4.63367 
 C                     2.04043  -3.922     3.9374 
 N                     3.06269  -4.58405   4.43605 
 C                    -2.13815  -2.75579   4.9128 
 C                    -1.21833  -1.77419   5.6425 
 C                    -0.21436  -1.36131   4.56407 
 O                     1.01494  -0.89575   4.99688 
 O                    -0.88268  -0.50527   3.7193 
 C                    -0.84581  -1.88007   0.65415 
 O                     0.03856  -1.108    -0.13735 
 C                     0.50826   0.06316   0.36432 
 O                     0.43995   0.35288   1.54521 
 N                     1.07338   0.80496  -0.58116 
 H                     0.56576  -3.47052   0.52444 
 H                    -1.2957   -4.78409   0.99382 
 H                     1.13933  -1.61478   2.32607 
 H                    -3.37341  -4.72565   3.8035 
 H                    -3.32154  -5.11343   2.1278 
 H                     2.67785  -3.59983   2.00587 
 H                     0.97484  -3.51819   5.64141 
 H                     3.87178  -4.80378   3.87638 
 H                     3.0676   -4.89433   5.39508 
 H                    -2.4646   -3.57075   5.55815 
 H                    -3.00382  -2.25468   4.48154 
 H                    -0.70879  -2.2479    6.48079 
 H                    -1.76119  -0.90845   6.01212 
 H                     0.92585  -0.00217   5.35033 
 H                    -0.30911  -0.13175   3.01709 
 H                    -1.34502  -1.26734   1.40575 
 H                    -1.59     -2.27987  -0.033 
 H                     1.45544   1.70066  -0.32771 
 H                     1.02567   0.53732  -1.54944 
 
 NAtoms=     40 NQM=       40 NQMF=       0 NMMI=      0 NMMIF=      0
                NMic=       0 NMicF=      0.
                    Isotopes and Nuclear Properties:
 (Nuclear quadrupole moments (NQMom) in fm**2, nuclear magnetic moments (NMagM)
  in nuclear magnetons)

  Atom         1           2           3           4           5           6           7           8           9          10
 IAtWgt=          12          14          12          14          12          12          14          14          14          12
 AtmWgt=  12.0000000  14.0030740  12.0000000  14.0030740  12.0000000  12.0000000  14.0030740  14.0030740  14.0030740  12.0000000
 NucSpn=           0           2           0           2           0           0           2           2           2           0
 AtZEff=   0.0000000   0.0000000   0.0000000   0.0000000   0.0000000   0.0000000   0.0000000   0.0000000   0.0000000   0.0000000
 NQMom=    0.0000000   2.0440000   0.0000000   2.0440000   0.0000000   0.0000000   2.0440000   2.0440000   2.0440000   0.0000000
 NMagM=    0.0000000   0.4037610   0.0000000   0.4037610   0.0000000   0.0000000   0.4037610   0.4037610   0.4037610   0.0000000
 AtZNuc=   6.0000000   7.0000000   6.0000000   7.0000000   6.0000000   6.0000000   7.0000000   7.0000000   7.0000000   6.0000000

  Atom        11          12          13          14          15          16          17          18          19          20
 IAtWgt=          14          12          12          12          16          16          12          16          12          16
 AtmWgt=  14.0030740  12.0000000  12.0000000  12.0000000  15.9949146  15.9949146  12.0000000  15.9949146  12.0000000  15.9949146
 NucSpn=           2           0           0           0           0           0           0           0           0           0
 AtZEff=   0.0000000   0.0000000   0.0000000   0.0000000   0.0000000   0.0000000   0.0000000   0.0000000   0.0000000   0.0000000
 NQMom=    2.0440000   0.0000000   0.0000000   0.0000000   0.0000000   0.0000000   0.0000000   0.0000000   0.0000000   0.0000000
 NMagM=    0.4037610   0.0000000   0.0000000   0.0000000   0.0000000   0.0000000   0.0000000   0.0000000   0.0000000   0.0000000
 AtZNuc=   7.0000000   6.0000000   6.0000000   6.0000000   8.0000000   8.0000000   6.0000000   8.0000000   6.0000000   8.0000000

  Atom        21          22          23          24          25          26          27          28          29          30
 IAtWgt=          14           1           1           1           1           1           1           1           1           1
 AtmWgt=  14.0030740   1.0078250   1.0078250   1.0078250   1.0078250   1.0078250   1.0078250   1.0078250   1.0078250   1.0078250
 NucSpn=           2           1           1           1           1           1           1           1           1           1
 AtZEff=   0.0000000   0.0000000   0.0000000   0.0000000   0.0000000   0.0000000   0.0000000   0.0000000   0.0000000   0.0000000
 NQMom=    2.0440000   0.0000000   0.0000000   0.0000000   0.0000000   0.0000000   0.0000000   0.0000000   0.0000000   0.0000000
 NMagM=    0.4037610   2.7928460   2.7928460   2.7928460   2.7928460   2.7928460   2.7928460   2.7928460   2.7928460   2.7928460
 AtZNuc=   7.0000000   1.0000000   1.0000000   1.0000000   1.0000000   1.0000000   1.0000000   1.0000000   1.0000000   1.0000000

  Atom        31          32          33          34          35          36          37          38          39          40
 IAtWgt=           1           1           1           1           1           1           1           1           1           1
 AtmWgt=   1.0078250   1.0078250   1.0078250   1.0078250   1.0078250   1.0078250   1.0078250   1.0078250   1.0078250   1.0078250
 NucSpn=           1           1           1           1           1           1           1           1           1           1
 AtZEff=   0.0000000   0.0000000   0.0000000   0.0000000   0.0000000   0.0000000   0.0000000   0.0000000   0.0000000   0.0000000
 NQMom=    0.0000000   0.0000000   0.0000000   0.0000000   0.0000000   0.0000000   0.0000000   0.0000000   0.0000000   0.0000000
 NMagM=    2.7928460   2.7928460   2.7928460   2.7928460   2.7928460   2.7928460   2.7928460   2.7928460   2.7928460   2.7928460
 AtZNuc=   1.0000000   1.0000000   1.0000000   1.0000000   1.0000000   1.0000000   1.0000000   1.0000000   1.0000000   1.0000000
 Leave Link  101 at Mon May 14 00:32:36 2018, MaxMem=  4026531840 cpu:         4.7
 (Enter /opt/local/g09/l103.exe)

 GradGradGradGradGradGradGradGradGradGradGradGradGradGradGradGradGradGrad
 Berny optimization.
 Initialization pass.
                           ----------------------------
                           !    Initial Parameters    !
                           ! (Angstroms and Degrees)  !
 --------------------------                            --------------------------
 ! Name  Definition              Value          Derivative Info.                !
 --------------------------------------------------------------------------------
 ! R1    R(1,2)                  1.4631         calculate D2E/DX2 analytically  !
 ! R2    R(1,6)                  1.5303         calculate D2E/DX2 analytically  !
 ! R3    R(1,17)                 1.5378         calculate D2E/DX2 analytically  !
 ! R4    R(1,22)                 1.0901         calculate D2E/DX2 analytically  !
 ! R5    R(2,3)                  1.3398         calculate D2E/DX2 analytically  !
 ! R6    R(2,23)                 1.0089         calculate D2E/DX2 analytically  !
 ! R7    R(3,4)                  1.3265         calculate D2E/DX2 analytically  !
 ! R8    R(3,7)                  1.326          calculate D2E/DX2 analytically  !
 ! R9    R(4,5)                  1.4546         calculate D2E/DX2 analytically  !
 ! R10   R(4,12)                 1.4852         calculate D2E/DX2 analytically  !
 ! R11   R(5,6)                  1.552          calculate D2E/DX2 analytically  !
 ! R12   R(5,9)                  1.4656         calculate D2E/DX2 analytically  !
 ! R13   R(5,14)                 1.5584         calculate D2E/DX2 analytically  !
 ! R14   R(6,8)                  1.4644         calculate D2E/DX2 analytically  !
 ! R15   R(6,24)                 1.0905         calculate D2E/DX2 analytically  !
 ! R16   R(7,25)                 1.0073         calculate D2E/DX2 analytically  !
 ! R17   R(7,26)                 1.0076         calculate D2E/DX2 analytically  !
 ! R18   R(8,10)                 1.3288         calculate D2E/DX2 analytically  !
 ! R19   R(8,27)                 1.0081         calculate D2E/DX2 analytically  !
 ! R20   R(9,10)                 1.3371         calculate D2E/DX2 analytically  !
 ! R21   R(9,28)                 1.0095         calculate D2E/DX2 analytically  !
 ! R22   R(10,11)                1.316          calculate D2E/DX2 analytically  !
 ! R23   R(11,29)                1.008          calculate D2E/DX2 analytically  !
 ! R24   R(11,30)                1.008          calculate D2E/DX2 analytically  !
 ! R25   R(12,13)                1.5304         calculate D2E/DX2 analytically  !
 ! R26   R(12,31)                1.0896         calculate D2E/DX2 analytically  !
 ! R27   R(12,32)                1.0893         calculate D2E/DX2 analytically  !
 ! R28   R(13,14)                1.5302         calculate D2E/DX2 analytically  !
 ! R29   R(13,33)                1.0894         calculate D2E/DX2 analytically  !
 ! R30   R(13,34)                1.0867         calculate D2E/DX2 analytically  !
 ! R31   R(14,15)                1.3839         calculate D2E/DX2 analytically  !
 ! R32   R(14,16)                1.3759         calculate D2E/DX2 analytically  !
 ! R33   R(15,35)                0.9651         calculate D2E/DX2 analytically  !
 ! R34   R(16,36)                0.9806         calculate D2E/DX2 analytically  !
 ! R35   R(17,18)                1.4159         calculate D2E/DX2 analytically  !
 ! R36   R(17,37)                1.0907         calculate D2E/DX2 analytically  !
 ! R37   R(17,38)                1.089          calculate D2E/DX2 analytically  !
 ! R38   R(18,19)                1.3579         calculate D2E/DX2 analytically  !
 ! R39   R(19,20)                1.2178         calculate D2E/DX2 analytically  !
 ! R40   R(19,21)                1.328          calculate D2E/DX2 analytically  !
 ! R41   R(21,39)                1.0062         calculate D2E/DX2 analytically  !
 ! R42   R(21,40)                1.0057         calculate D2E/DX2 analytically  !
 ! A1    A(2,1,6)              110.013          calculate D2E/DX2 analytically  !
 ! A2    A(2,1,17)             111.235          calculate D2E/DX2 analytically  !
 ! A3    A(2,1,22)             106.8365         calculate D2E/DX2 analytically  !
 ! A4    A(6,1,17)             113.1473         calculate D2E/DX2 analytically  !
 ! A5    A(6,1,22)             108.2238         calculate D2E/DX2 analytically  !
 ! A6    A(17,1,22)            107.0995         calculate D2E/DX2 analytically  !
 ! A7    A(1,2,3)              121.2117         calculate D2E/DX2 analytically  !
 ! A8    A(1,2,23)             118.0269         calculate D2E/DX2 analytically  !
 ! A9    A(3,2,23)             117.9164         calculate D2E/DX2 analytically  !
 ! A10   A(2,3,4)              118.811          calculate D2E/DX2 analytically  !
 ! A11   A(2,3,7)              120.7736         calculate D2E/DX2 analytically  !
 ! A12   A(4,3,7)              120.4151         calculate D2E/DX2 analytically  !
 ! A13   A(3,4,5)              123.2851         calculate D2E/DX2 analytically  !
 ! A14   A(3,4,12)             124.1995         calculate D2E/DX2 analytically  !
 ! A15   A(5,4,12)             112.1355         calculate D2E/DX2 analytically  !
 ! A16   A(4,5,6)              115.3403         calculate D2E/DX2 analytically  !
 ! A17   A(4,5,9)              111.2532         calculate D2E/DX2 analytically  !
 ! A18   A(4,5,14)             100.4377         calculate D2E/DX2 analytically  !
 ! A19   A(6,5,9)              102.5795         calculate D2E/DX2 analytically  !
 ! A20   A(6,5,14)             115.9598         calculate D2E/DX2 analytically  !
 ! A21   A(9,5,14)             111.6357         calculate D2E/DX2 analytically  !
 ! A22   A(1,6,5)              113.8091         calculate D2E/DX2 analytically  !
 ! A23   A(1,6,8)              112.143          calculate D2E/DX2 analytically  !
 ! A24   A(1,6,24)             109.414          calculate D2E/DX2 analytically  !
 ! A25   A(5,6,8)              102.432          calculate D2E/DX2 analytically  !
 ! A26   A(5,6,24)             109.2354         calculate D2E/DX2 analytically  !
 ! A27   A(8,6,24)             109.5782         calculate D2E/DX2 analytically  !
 ! A28   A(3,7,25)             121.2211         calculate D2E/DX2 analytically  !
 ! A29   A(3,7,26)             121.4625         calculate D2E/DX2 analytically  !
 ! A30   A(25,7,26)            117.3037         calculate D2E/DX2 analytically  !
 ! A31   A(6,8,10)             111.922          calculate D2E/DX2 analytically  !
 ! A32   A(6,8,27)             122.5449         calculate D2E/DX2 analytically  !
 ! A33   A(10,8,27)            122.995          calculate D2E/DX2 analytically  !
 ! A34   A(5,9,10)             111.7635         calculate D2E/DX2 analytically  !
 ! A35   A(5,9,28)             121.0237         calculate D2E/DX2 analytically  !
 ! A36   A(10,9,28)            121.1253         calculate D2E/DX2 analytically  !
 ! A37   A(8,10,9)             110.3657         calculate D2E/DX2 analytically  !
 ! A38   A(8,10,11)            125.1931         calculate D2E/DX2 analytically  !
 ! A39   A(9,10,11)            124.4284         calculate D2E/DX2 analytically  !
 ! A40   A(10,11,29)           121.517          calculate D2E/DX2 analytically  !
 ! A41   A(10,11,30)           121.274          calculate D2E/DX2 analytically  !
 ! A42   A(29,11,30)           117.2089         calculate D2E/DX2 analytically  !
 ! A43   A(4,12,13)            103.4729         calculate D2E/DX2 analytically  !
 ! A44   A(4,12,31)            110.7485         calculate D2E/DX2 analytically  !
 ! A45   A(4,12,32)            108.5328         calculate D2E/DX2 analytically  !
 ! A46   A(13,12,31)           112.1733         calculate D2E/DX2 analytically  !
 ! A47   A(13,12,32)           111.8            calculate D2E/DX2 analytically  !
 ! A48   A(31,12,32)           109.9065         calculate D2E/DX2 analytically  !
 ! A49   A(12,13,14)           103.3779         calculate D2E/DX2 analytically  !
 ! A50   A(12,13,33)           111.6613         calculate D2E/DX2 analytically  !
 ! A51   A(12,13,34)           111.8968         calculate D2E/DX2 analytically  !
 ! A52   A(14,13,33)           110.6569         calculate D2E/DX2 analytically  !
 ! A53   A(14,13,34)           110.6426         calculate D2E/DX2 analytically  !
 ! A54   A(33,13,34)           108.5637         calculate D2E/DX2 analytically  !
 ! A55   A(5,14,13)            101.6636         calculate D2E/DX2 analytically  !
 ! A56   A(5,14,15)            106.3819         calculate D2E/DX2 analytically  !
 ! A57   A(5,14,16)            110.1934         calculate D2E/DX2 analytically  !
 ! A58   A(13,14,15)           116.947          calculate D2E/DX2 analytically  !
 ! A59   A(13,14,16)           106.3732         calculate D2E/DX2 analytically  !
 ! A60   A(15,14,16)           114.4673         calculate D2E/DX2 analytically  !
 ! A61   A(14,15,35)           110.1219         calculate D2E/DX2 analytically  !
 ! A62   A(14,16,36)           113.113          calculate D2E/DX2 analytically  !
 ! A63   A(1,17,18)            109.8732         calculate D2E/DX2 analytically  !
 ! A64   A(1,17,37)            111.6499         calculate D2E/DX2 analytically  !
 ! A65   A(1,17,38)            108.6359         calculate D2E/DX2 analytically  !
 ! A66   A(18,17,37)           111.3937         calculate D2E/DX2 analytically  !
 ! A67   A(18,17,38)           105.9208         calculate D2E/DX2 analytically  !
 ! A68   A(37,17,38)           109.1662         calculate D2E/DX2 analytically  !
 ! A69   A(17,18,19)           118.6745         calculate D2E/DX2 analytically  !
 ! A70   A(18,19,20)           122.9579         calculate D2E/DX2 analytically  !
 ! A71   A(18,19,21)           111.4652         calculate D2E/DX2 analytically  !
 ! A72   A(20,19,21)           125.5452         calculate D2E/DX2 analytically  !
 ! A73   A(19,21,39)           118.6517         calculate D2E/DX2 analytically  !
 ! A74   A(19,21,40)           121.1056         calculate D2E/DX2 analytically  !
 ! A75   A(39,21,40)           119.8284         calculate D2E/DX2 analytically  !
 ! D1    D(6,1,2,3)             48.5498         calculate D2E/DX2 analytically  !
 ! D2    D(6,1,2,23)          -150.9455         calculate D2E/DX2 analytically  !
 ! D3    D(17,1,2,3)           -77.6331         calculate D2E/DX2 analytically  !
 ! D4    D(17,1,2,23)           82.8716         calculate D2E/DX2 analytically  !
 ! D5    D(22,1,2,3)           165.8049         calculate D2E/DX2 analytically  !
 ! D6    D(22,1,2,23)          -33.6904         calculate D2E/DX2 analytically  !
 ! D7    D(2,1,6,5)            -33.8245         calculate D2E/DX2 analytically  !
 ! D8    D(2,1,6,8)             81.8717         calculate D2E/DX2 analytically  !
 ! D9    D(2,1,6,24)          -156.3252         calculate D2E/DX2 analytically  !
 ! D10   D(17,1,6,5)            91.2704         calculate D2E/DX2 analytically  !
 ! D11   D(17,1,6,8)          -153.0335         calculate D2E/DX2 analytically  !
 ! D12   D(17,1,6,24)          -31.2304         calculate D2E/DX2 analytically  !
 ! D13   D(22,1,6,5)          -150.2128         calculate D2E/DX2 analytically  !
 ! D14   D(22,1,6,8)           -34.5166         calculate D2E/DX2 analytically  !
 ! D15   D(22,1,6,24)           87.2864         calculate D2E/DX2 analytically  !
 ! D16   D(2,1,17,18)         -159.2312         calculate D2E/DX2 analytically  !
 ! D17   D(2,1,17,37)           76.6582         calculate D2E/DX2 analytically  !
 ! D18   D(2,1,17,38)          -43.7816         calculate D2E/DX2 analytically  !
 ! D19   D(6,1,17,18)           76.3365         calculate D2E/DX2 analytically  !
 ! D20   D(6,1,17,37)          -47.774          calculate D2E/DX2 analytically  !
 ! D21   D(6,1,17,38)         -168.2138         calculate D2E/DX2 analytically  !
 ! D22   D(22,1,17,18)         -42.8304         calculate D2E/DX2 analytically  !
 ! D23   D(22,1,17,37)        -166.9409         calculate D2E/DX2 analytically  !
 ! D24   D(22,1,17,38)          72.6193         calculate D2E/DX2 analytically  !
 ! D25   D(1,2,3,4)            -26.8294         calculate D2E/DX2 analytically  !
 ! D26   D(1,2,3,7)            153.009          calculate D2E/DX2 analytically  !
 ! D27   D(23,2,3,4)           172.6452         calculate D2E/DX2 analytically  !
 ! D28   D(23,2,3,7)            -7.5164         calculate D2E/DX2 analytically  !
 ! D29   D(2,3,4,5)            -10.5167         calculate D2E/DX2 analytically  !
 ! D30   D(2,3,4,12)           161.8463         calculate D2E/DX2 analytically  !
 ! D31   D(7,3,4,5)            169.6443         calculate D2E/DX2 analytically  !
 ! D32   D(7,3,4,12)           -17.9927         calculate D2E/DX2 analytically  !
 ! D33   D(2,3,7,25)           168.9187         calculate D2E/DX2 analytically  !
 ! D34   D(2,3,7,26)            -9.7438         calculate D2E/DX2 analytically  !
 ! D35   D(4,3,7,25)           -11.2455         calculate D2E/DX2 analytically  !
 ! D36   D(4,3,7,26)           170.092          calculate D2E/DX2 analytically  !
 ! D37   D(3,4,5,6)             20.4877         calculate D2E/DX2 analytically  !
 ! D38   D(3,4,5,9)            -95.7921         calculate D2E/DX2 analytically  !
 ! D39   D(3,4,5,14)           145.9191         calculate D2E/DX2 analytically  !
 ! D40   D(12,4,5,6)          -152.6973         calculate D2E/DX2 analytically  !
 ! D41   D(12,4,5,9)            91.0229         calculate D2E/DX2 analytically  !
 ! D42   D(12,4,5,14)          -27.2659         calculate D2E/DX2 analytically  !
 ! D43   D(3,4,12,13)         -170.8699         calculate D2E/DX2 analytically  !
 ! D44   D(3,4,12,31)           68.7479         calculate D2E/DX2 analytically  !
 ! D45   D(3,4,12,32)          -51.9833         calculate D2E/DX2 analytically  !
 ! D46   D(5,4,12,13)            2.2417         calculate D2E/DX2 analytically  !
 ! D47   D(5,4,12,31)         -118.1405         calculate D2E/DX2 analytically  !
 ! D48   D(5,4,12,32)          121.1283         calculate D2E/DX2 analytically  !
 ! D49   D(4,5,6,1)              4.0858         calculate D2E/DX2 analytically  !
 ! D50   D(4,5,6,8)           -117.1891         calculate D2E/DX2 analytically  !
 ! D51   D(4,5,6,24)           126.6848         calculate D2E/DX2 analytically  !
 ! D52   D(9,5,6,1)            125.1918         calculate D2E/DX2 analytically  !
 ! D53   D(9,5,6,8)              3.9168         calculate D2E/DX2 analytically  !
 ! D54   D(9,5,6,24)          -112.2093         calculate D2E/DX2 analytically  !
 ! D55   D(14,5,6,1)          -112.8831         calculate D2E/DX2 analytically  !
 ! D56   D(14,5,6,8)           125.8419         calculate D2E/DX2 analytically  !
 ! D57   D(14,5,6,24)            9.7158         calculate D2E/DX2 analytically  !
 ! D58   D(4,5,9,10)           125.6334         calculate D2E/DX2 analytically  !
 ! D59   D(4,5,9,28)           -81.544          calculate D2E/DX2 analytically  !
 ! D60   D(6,5,9,10)             1.7631         calculate D2E/DX2 analytically  !
 ! D61   D(6,5,9,28)           154.5857         calculate D2E/DX2 analytically  !
 ! D62   D(14,5,9,10)         -123.0578         calculate D2E/DX2 analytically  !
 ! D63   D(14,5,9,28)           29.7648         calculate D2E/DX2 analytically  !
 ! D64   D(4,5,14,13)           41.171          calculate D2E/DX2 analytically  !
 ! D65   D(4,5,14,15)          164.058          calculate D2E/DX2 analytically  !
 ! D66   D(4,5,14,16)          -71.3245         calculate D2E/DX2 analytically  !
 ! D67   D(6,5,14,13)          166.1811         calculate D2E/DX2 analytically  !
 ! D68   D(6,5,14,15)          -70.9319         calculate D2E/DX2 analytically  !
 ! D69   D(6,5,14,16)           53.6856         calculate D2E/DX2 analytically  !
 ! D70   D(9,5,14,13)          -76.837          calculate D2E/DX2 analytically  !
 ! D71   D(9,5,14,15)           46.05           calculate D2E/DX2 analytically  !
 ! D72   D(9,5,14,16)          170.6675         calculate D2E/DX2 analytically  !
 ! D73   D(1,6,8,10)          -131.1537         calculate D2E/DX2 analytically  !
 ! D74   D(1,6,8,27)            66.4466         calculate D2E/DX2 analytically  !
 ! D75   D(5,6,8,10)            -8.7414         calculate D2E/DX2 analytically  !
 ! D76   D(5,6,8,27)          -171.1411         calculate D2E/DX2 analytically  !
 ! D77   D(24,6,8,10)          107.1371         calculate D2E/DX2 analytically  !
 ! D78   D(24,6,8,27)          -55.2626         calculate D2E/DX2 analytically  !
 ! D79   D(6,8,10,9)            10.4715         calculate D2E/DX2 analytically  !
 ! D80   D(6,8,10,11)         -170.7876         calculate D2E/DX2 analytically  !
 ! D81   D(27,8,10,9)          172.7791         calculate D2E/DX2 analytically  !
 ! D82   D(27,8,10,11)          -8.48           calculate D2E/DX2 analytically  !
 ! D83   D(5,9,10,8)            -7.5312         calculate D2E/DX2 analytically  !
 ! D84   D(5,9,10,11)          173.7163         calculate D2E/DX2 analytically  !
 ! D85   D(28,9,10,8)         -160.3223         calculate D2E/DX2 analytically  !
 ! D86   D(28,9,10,11)          20.9252         calculate D2E/DX2 analytically  !
 ! D87   D(8,10,11,29)           3.0473         calculate D2E/DX2 analytically  !
 ! D88   D(8,10,11,30)        -176.8309         calculate D2E/DX2 analytically  !
 ! D89   D(9,10,11,29)        -178.3838         calculate D2E/DX2 analytically  !
 ! D90   D(9,10,11,30)           1.738          calculate D2E/DX2 analytically  !
 ! D91   D(4,12,13,14)          24.5528         calculate D2E/DX2 analytically  !
 ! D92   D(4,12,13,33)         -94.4348         calculate D2E/DX2 analytically  !
 ! D93   D(4,12,13,34)         143.6397         calculate D2E/DX2 analytically  !
 ! D94   D(31,12,13,14)        143.9607         calculate D2E/DX2 analytically  !
 ! D95   D(31,12,13,33)         24.9731         calculate D2E/DX2 analytically  !
 ! D96   D(31,12,13,34)        -96.9524         calculate D2E/DX2 analytically  !
 ! D97   D(32,12,13,14)        -92.0524         calculate D2E/DX2 analytically  !
 ! D98   D(32,12,13,33)        148.96           calculate D2E/DX2 analytically  !
 ! D99   D(32,12,13,34)         27.0345         calculate D2E/DX2 analytically  !
 ! D100  D(12,13,14,5)         -40.9312         calculate D2E/DX2 analytically  !
 ! D101  D(12,13,14,15)       -156.2719         calculate D2E/DX2 analytically  !
 ! D102  D(12,13,14,16)         74.4105         calculate D2E/DX2 analytically  !
 ! D103  D(33,13,14,5)          78.7482         calculate D2E/DX2 analytically  !
 ! D104  D(33,13,14,15)        -36.5926         calculate D2E/DX2 analytically  !
 ! D105  D(33,13,14,16)       -165.9102         calculate D2E/DX2 analytically  !
 ! D106  D(34,13,14,5)        -160.8805         calculate D2E/DX2 analytically  !
 ! D107  D(34,13,14,15)         83.7788         calculate D2E/DX2 analytically  !
 ! D108  D(34,13,14,16)        -45.5388         calculate D2E/DX2 analytically  !
 ! D109  D(5,14,15,35)         172.8807         calculate D2E/DX2 analytically  !
 ! D110  D(13,14,15,35)        -74.4241         calculate D2E/DX2 analytically  !
 ! D111  D(16,14,15,35)         50.9385         calculate D2E/DX2 analytically  !
 ! D112  D(5,14,16,36)         -74.2942         calculate D2E/DX2 analytically  !
 ! D113  D(13,14,16,36)        176.2809         calculate D2E/DX2 analytically  !
 ! D114  D(15,14,16,36)         45.5419         calculate D2E/DX2 analytically  !
 ! D115  D(1,17,18,19)        -101.9649         calculate D2E/DX2 analytically  !
 ! D116  D(37,17,18,19)         22.2944         calculate D2E/DX2 analytically  !
 ! D117  D(38,17,18,19)        140.8768         calculate D2E/DX2 analytically  !
 ! D118  D(17,18,19,20)         15.7833         calculate D2E/DX2 analytically  !
 ! D119  D(17,18,19,21)       -166.1641         calculate D2E/DX2 analytically  !
 ! D120  D(18,19,21,39)        179.7279         calculate D2E/DX2 analytically  !
 ! D121  D(18,19,21,40)          7.1285         calculate D2E/DX2 analytically  !
 ! D122  D(20,19,21,39)         -2.2804         calculate D2E/DX2 analytically  !
 ! D123  D(20,19,21,40)       -174.8798         calculate D2E/DX2 analytically  !
 --------------------------------------------------------------------------------
 Trust Radius=3.00D-01 FncErr=1.00D-07 GrdErr=1.00D-07
 Number of steps in this run=      2 maximum allowed number of steps=      2.
 GradGradGradGradGradGradGradGradGradGradGradGradGradGradGradGradGradGrad

 Leave Link  103 at Mon May 14 00:32:36 2018, MaxMem=  4026531840 cpu:         0.1
 (Enter /opt/local/g09/l202.exe)
                          Input orientation:                          
 ---------------------------------------------------------------------
 Center     Atomic      Atomic             Coordinates (Angstroms)
 Number     Number       Type             X           Y           Z
 ---------------------------------------------------------------------
      1          6           0       -0.085785   -3.054349    1.292998
      2          7           0       -1.001574   -4.121883    1.695777
      3          6           0       -1.737547   -4.021346    2.810825
      4          7           0       -1.289665   -3.268096    3.806682
      5          6           0        0.056766   -2.719453    3.849485
      6          6           0        0.782953   -2.633772    2.480549
      7          7           0       -2.894946   -4.659182    2.919601
      8          7           0        1.925513   -3.529321    2.673177
      9          7           0        0.953574   -3.573062    4.633665
     10          6           0        2.040433   -3.922003    3.937398
     11          7           0        3.062691   -4.584046    4.436047
     12          6           0       -2.138151   -2.755787    4.912797
     13          6           0       -1.218332   -1.774186    5.642499
     14          6           0       -0.214358   -1.361314    4.564071
     15          8           0        1.014945   -0.895752    4.996883
     16          8           0       -0.882676   -0.505267    3.719302
     17          6           0       -0.845811   -1.880071    0.654148
     18          8           0        0.038560   -1.107996   -0.137354
     19          6           0        0.508255    0.063156    0.364316
     20          8           0        0.439953    0.352877    1.545214
     21          7           0        1.073377    0.804957   -0.581158
     22          1           0        0.565759   -3.470523    0.524443
     23          1           0       -1.295700   -4.784094    0.993815
     24          1           0        1.139329   -1.614775    2.326065
     25          1           0       -3.373411   -4.725654    3.803498
     26          1           0       -3.321543   -5.113428    2.127803
     27          1           0        2.677851   -3.599830    2.005871
     28          1           0        0.974838   -3.518188    5.641409
     29          1           0        3.871776   -4.803780    3.876378
     30          1           0        3.067596   -4.894334    5.395084
     31          1           0       -2.464599   -3.570753    5.558149
     32          1           0       -3.003818   -2.254680    4.481539
     33          1           0       -0.708789   -2.247903    6.480794
     34          1           0       -1.761190   -0.908450    6.012122
     35          1           0        0.925848   -0.002165    5.350326
     36          1           0       -0.309110   -0.131751    3.017087
     37          1           0       -1.345015   -1.267340    1.405745
     38          1           0       -1.590002   -2.279874   -0.033003
     39          1           0        1.455436    1.700662   -0.327708
     40          1           0        1.025668    0.537315   -1.549442
 ---------------------------------------------------------------------
                    Distance matrix (angstroms):
                    1          2          3          4          5
     1  C    0.000000
     2  N    1.463055   0.000000
     3  C    2.442785   1.339812   0.000000
     4  N    2.795286   2.295184   1.326543   0.000000
     5  C    2.582267   2.779452   2.448122   1.454551   0.000000
     6  C    1.530316   2.452525   2.896095   2.541012   1.551991
     7  N    3.621148   2.317605   1.325986   2.301947   3.652374
     8  N    2.485118   3.142337   3.698519   3.419129   2.351978
     9  N    3.536861   3.571413   3.281133   2.410192   1.465555
    10  C    3.502353   3.783996   3.943624   3.396209   2.321377
    11  N    4.704427   4.923507   5.099045   4.590297   3.585575
    12  C    4.171845   3.675220   2.486043   1.485220   2.439183
    13  C    4.673290   4.597312   3.652080   2.367927   2.394641
    14  C    3.685487   4.058024   3.531253   2.316407   1.558423
    15  O    4.426049   5.037020   4.703658   3.515085   2.358074
    16  O    3.608297   4.145926   3.730810   2.794011   2.408759
    17  C    1.537757   2.476888   3.167255   3.473052   3.424819
    18  O    2.418607   3.677739   4.509315   4.688884   4.300234
    19  C    3.306686   4.644020   5.264237   5.116604   4.482539
    20  O    3.456762   4.703631   5.047485   4.606220   3.859496
    21  N    4.444138   5.810646   6.534527   6.436371   5.752005
    22  H    1.090132   2.062238   3.291833   3.775800   3.446605
    23  H    2.132000   1.008853   2.019539   3.195388   3.774488
    24  H    2.154183   3.356534   3.781930   3.290245   2.170959
    25  H    4.461430   3.229959   2.038995   2.542928   3.974050
    26  H    3.925154   2.559700   2.041618   3.217517   4.484225
    27  H    2.905757   3.729191   4.507923   4.369685   3.323261
    28  H    4.499861   4.454062   3.952519   2.925191   2.166062
    29  H    5.039509   5.382336   5.762995   5.385504   4.347349
    30  H    5.491490   5.553350   5.525387   4.914610   4.022944
    31  H    4.910900   4.166786   2.877399   2.130659   3.162519
    32  H    4.395587   3.905880   2.741503   2.102561   3.159538
    33  H    5.286938   5.147224   4.203822   2.920460   2.780687
    34  H    5.448119   5.434520   4.465309   3.264082   3.355845
    35  H    5.176982   5.834617   5.449454   4.237646   3.223582
    36  H    3.400579   4.259873   4.148726   3.379587   2.742800
    37  H    2.189012   2.889721   3.116549   3.125794   3.169462
    38  H    2.149595   2.593824   3.337941   3.976175   4.240140
    39  H    5.254729   6.635768   7.265460   7.022629   6.240403
    40  H    4.713262   6.029037   6.886848   6.966347   6.379163
                    6          7          8          9         10
     6  C    0.000000
     7  N    4.221610   0.000000
     8  N    1.464431   4.957231   0.000000
     9  N    2.355268   4.350722   2.188628   0.000000
    10  C    2.315859   5.092868   1.328782   1.337090   0.000000
    11  N    3.581166   6.148064   2.348048   2.347236   1.316041
    12  C    3.803100   2.858056   4.704000   3.210080   4.446575
    13  C    3.839526   4.306786   4.667026   2.995142   4.259112
    14  C    2.637204   4.556947   3.585357   2.502147   3.468995
    15  O    3.066997   5.810831   3.628282   2.702533   3.366353
    16  O    2.973107   4.684417   4.257371   3.690425   4.501802
    17  C    2.560601   4.129732   3.804831   4.684075   4.824896
    18  O    3.120181   5.528232   4.162030   5.447607   5.341323
    19  C    3.439087   6.357022   4.499483   5.625632   5.567403
    20  O    3.148424   6.175049   4.307047   5.021487   5.153511
    21  N    4.613378   7.606557   5.486602   6.809977   6.610348
    22  H    2.138615   4.373348   2.543511   4.128755   3.745232
    23  H    3.339919   2.506360   3.843296   4.446835   4.531850
    24  H    1.090515   5.088819   2.098585   3.032229   2.954942
    25  H    4.837512   1.007284   5.548643   4.554168   5.474805
    26  H    4.808327   1.007605   5.508033   5.189287   5.783158
    27  H    2.179272   5.745711   1.008108   3.143111   2.059343
    28  H    3.287864   4.866758   3.116778   1.009461   2.049930
    29  H    4.024686   6.835558   2.619137   3.256387   2.033487
    30  H    4.338692   6.460280   3.252136   2.606647   2.031093
    31  H    4.571231   2.886488   5.253367   3.540986   4.800575
    32  H    4.299687   2.869344   5.403072   4.173994   5.340461
    33  H    4.286741   4.824484   4.804116   2.816271   4.102401
    34  H    4.682030   4.991701   5.622215   4.046016   5.276203
    35  H    3.896331   6.495745   4.539525   3.642208   4.313212
    36  H    2.782190   5.214756   4.081090   4.006285   4.553387
    37  H    2.747833   4.024753   4.173643   4.584685   4.991769
    38  H    3.474781   4.010219   4.609053   5.469909   5.625009
    39  H    5.208249   8.361726   6.048058   7.258047   7.081505
    40  H    5.133764   7.896021   5.931084   7.425039   7.142876
                   11         12         13         14         15
    11  N    0.000000
    12  C    5.533406   0.000000
    13  C    5.260988   1.530383   0.000000
    14  C    4.597982   2.401488   1.530175   0.000000
    15  O    4.255739   3.661805   2.485154   1.383929   0.000000
    16  O    5.719797   2.839980   2.328413   1.375900   2.320702
    17  C    6.073766   4.535759   5.003362   3.994414   4.826038
    18  O    6.491863   5.740846   5.952335   4.715033   5.230561
    19  C    6.685852   5.969806   5.849457   4.493242   4.757827
    20  O    6.293559   5.258424   4.905308   3.532714   3.715334
    21  N    7.626996   7.292212   7.116025   5.729256   5.831841
    22  H    4.772342   5.203809   5.679352   4.623412   5.180148
    23  H    5.557387   4.492457   5.538573   5.062751   6.040102
    24  H    4.119213   4.328391   4.072188   2.627809   2.768706
    25  H    6.468661   2.576196   4.091143   4.677272   5.945585
    26  H    6.809308   3.836024   5.284612   5.446867   6.695188
    27  H    2.650007   5.688278   5.633674   4.463207   4.361588
    28  H    2.635921   3.286766   2.802060   2.688299   2.700776
    29  H    1.008033   6.433324   6.181167   5.387020   4.968873
    30  H    1.007995   5.648521   5.307138   4.893264   4.512272
    31  H    5.730341   1.089595   2.188138   3.306569   4.424689
    32  H    6.498503   1.089253   2.183269   2.930188   4.273490
    33  H    4.884938   2.181659   1.089394   2.168947   2.646047
    34  H    6.266087   2.182491   1.086653   2.166709   2.955976
    35  H    5.137668   4.142699   2.796950   1.940503   0.965069
    36  H    5.762414   3.718154   3.227548   1.978374   2.501282
    37  H    6.293738   3.891523   4.268844   3.355926   4.313208
    38  H    6.850487   4.998790   5.710095   4.885615   5.831063
    39  H    8.048241   7.761230   7.407225   6.007779   5.940258
    40  H    8.136577   7.912952   7.880520   6.520544   6.701356
                   16         17         18         19         20
    16  O    0.000000
    17  C    3.359556   0.000000
    18  O    4.010705   1.415870   0.000000
    19  C    3.676102   2.386133   1.357897   0.000000
    20  O    2.685594   2.726398   2.264134   1.217836   0.000000
    21  N    4.902733   3.524009   2.219729   1.327988   2.264301
    22  H    4.593238   2.130467   2.509472   3.537773   3.959317
    23  H    5.089914   2.958230   4.071055   5.210216   5.450230
    24  H    2.694554   2.608921   2.745351   2.657474   2.229464
    25  H    4.901277   4.940092   6.345022   7.058895   6.740406
    26  H    5.451247   4.330763   5.697781   6.676396   6.660987
    27  H    5.018916   4.147399   4.215271   4.562819   4.565554
    28  H    4.027722   5.556164   6.330856   6.394641   5.661277
    29  H    6.411451   6.417668   6.668014   6.880038   6.618372
    30  H    6.138143   6.846679   7.356581   7.512360   7.018492
    31  H    3.909097   5.433977   6.691019   7.001361   6.319410
    32  H    2.853190   4.409790   5.648462   5.887151   5.223114
    33  H    3.269993   5.839853   6.757056   6.650826   5.695930
    34  H    2.488246   5.521762   6.410536   6.163774   5.137046
    35  H    2.486787   5.359048   5.667872   5.003893   3.852405
    36  H    0.980611   2.988001   3.320305   2.782673   1.721154
    37  H    2.479326   1.090661   2.078659   2.507868   2.414677
    38  H    4.210621   1.088962   2.009080   3.170226   3.680063
    39  H    5.168286   4.368229   3.151560   2.014317   2.521025
    40  H    5.699861   3.768554   2.382315   2.038385   3.154992
                   21         22         23         24         25
    21  N    0.000000
    22  H    4.445195   0.000000
    23  H    6.271408   2.326114   0.000000
    24  H    3.783041   2.649269   4.212937   0.000000
    25  H    8.341870   5.276800   3.494942   5.676724   0.000000
    26  H    7.853730   4.514534   2.344873   5.672677   1.720759
    27  H    5.354363   2.583076   4.268003   2.531801   6.412232
    28  H    7.577574   5.133513   5.325222   3.826427   4.872695
    29  H    7.691462   4.893137   5.917125   4.476549   7.245975
    30  H    8.495546   5.657700   6.198522   4.888006   6.636880
    31  H    8.327977   5.876335   4.865354   5.221160   2.288785
    32  H    7.184414   5.466147   4.634633   4.713938   2.588832
    33  H    7.897293   6.212680   6.073193   4.591096   4.517452
    34  H    7.378474   6.487953   6.357728   4.743303   4.695564
    35  H    5.987964   5.953849   6.839686   3.433983   6.571731
    36  H    3.966870   4.257472   5.168296   2.185142   5.577843
    37  H    3.753774   3.046599   3.541141   2.672015   4.671568
    38  H    4.112207   2.525014   2.722515   3.668352   4.886832
    39  H    1.006227   5.315905   7.167094   4.258469   9.037819
    40  H    1.005725   4.535998   6.338320   4.434407   8.700845
                   26         27         28         29         30
    26  H    0.000000
    27  H    6.188584   0.000000
    28  H    5.774869   4.015477   0.000000
    29  H    7.409267   2.524628   3.627717   0.000000
    30  H    7.179431   3.648891   2.516762   1.720864   0.000000
    31  H    3.857651   6.250145   3.440846   6.670709   5.690662
    32  H    3.716647   6.341902   4.332604   7.357848   6.683143
    33  H    5.829773   5.772519   2.269976   5.856370   4.737452
    34  H    5.933336   6.557336   3.799212   7.173932   6.291676
    35  H    7.385797   5.215179   3.528392   5.822931   5.340637
    36  H    5.889201   4.687437   4.472532   6.328194   6.303904
    37  H    4.384110   4.688722   5.328122   6.769442   6.967141
    38  H    3.961861   4.910587   6.349077   7.175262   7.615297
    39  H    8.676456   5.919046   7.943408   8.113002   8.879380
    40  H    8.021924   5.699643   8.255787   8.128170   9.049791
                   31         32         33         34         35
    31  H    0.000000
    32  H    1.783787   0.000000
    33  H    2.384130   3.043719   0.000000
    34  H    2.790830   2.387288   1.766730   0.000000
    35  H    4.926778   4.612037   2.998889   2.911958   0.000000
    36  H    4.788514   3.730000   4.078616   3.417899   2.643089
    37  H    4.878692   3.631388   5.207918   4.639042   4.724109
    38  H    5.804504   4.730814   6.573212   6.201100   6.363780
    39  H    8.820306   7.658886   8.162765   7.572819   5.951483
    40  H    8.920540   7.772048   8.674703   8.187433   6.921546
                   36         37         38         39         40
    36  H    0.000000
    37  H    2.226900   0.000000
    38  H    3.944384   1.776299   0.000000
    39  H    4.202263   4.433556   5.020579   0.000000
    40  H    4.804422   4.196433   4.132538   1.740894   0.000000
 Symmetry turned off by external request.
 Stoichiometry    C10H19N7O4(2+)
 Framework group  C1[X(C10H19N7O4)]
 Deg. of freedom   114
 Full point group                 C1      NOp   1
 Rotational constants (GHZ):      0.4103093      0.2731111      0.2582855
 Leave Link  202 at Mon May 14 00:32:36 2018, MaxMem=  4026531840 cpu:         0.3
 (Enter /opt/local/g09/l301.exe)
 Standard basis: def2TZVPP (5D, 7F)
 Ernie: Thresh=  0.10000D-02 Tol=  0.10000D-05 Strict=F.
   917 basis functions,  1394 primitive gaussians,  1041 cartesian basis functions
    79 alpha electrons       79 beta electrons
       nuclear repulsion energy      2010.9751901602 Hartrees.
 IExCor= 4336 DFT=T Ex+Corr=M062X ExCW=0 ScaHFX=  0.540000
 ScaDFX=  1.000000  1.000000  1.000000  1.000000 ScalE2=  1.000000  1.000000
 IRadAn=      5 IRanWt=     -1 IRanGd=            0 ICorTp=0 IEmpDi=  4
 NAtoms=   40 NActive=   40 NUniq=   40 SFac= 1.00D+00 NAtFMM=   60 NAOKFM=F Big=F
 Integral buffers will be    131072 words long.
 Raffenetti 2 integral format.
 Two-electron integral symmetry is turned off.
 Leave Link  301 at Mon May 14 00:32:36 2018, MaxMem=  4026531840 cpu:         0.6
 (Enter /opt/local/g09/l302.exe)
 NPDir=0 NMtPBC=     1 NCelOv=     1 NCel=       1 NClECP=     1 NCelD=      1
         NCelK=      1 NCelE2=     1 NClLst=     1 CellRange=     0.0.
 One-electron integrals computed using PRISM.
   1 Symmetry operations used in ECPInt.
 ECPInt:  NShTT=   59685 NPrTT=  164397 LenC2=   53432 LenP2D=  108732.
 LDataN:  DoStor=T MaxTD1= 6 Len=  172
 NBasis=   917 RedAO= T EigKep=  7.24D-06  NBF=   917
 NBsUse=   917 1.00D-06 EigRej= -1.00D+00 NBFU=   917
 Precomputing XC quadrature grid using
 IXCGrd= 4 IRadAn=           5 IRanWt=          -1 IRanGd=           0 AccXCQ= 0.00D+00.
 Generated NRdTot=       0 NPtTot=           0 NUsed=           0 NTot=          32
 NSgBfM=  1031  1031  1031  1031  1031 MxSgAt=    40 MxSgA2=    40.
 Leave Link  302 at Mon May 14 00:32:41 2018, MaxMem=  4026531840 cpu:        67.6
 (Enter /opt/local/g09/l303.exe)
 DipDrv:  MaxL=1.
 Leave Link  303 at Mon May 14 00:32:41 2018, MaxMem=  4026531840 cpu:         3.8
 (Enter /opt/local/g09/l401.exe)
 ExpMin= 9.52D-02 ExpMax= 2.70D+04 ExpMxC= 9.22D+02 IAcc=3 IRadAn=         5 AccDes= 0.00D+00
 Harris functional with IExCor= 1009 and IRadAn=       5 diagonalized for initial guess.
 HarFok:  IExCor= 1009 AccDes= 0.00D+00 IRadAn=         5 IDoV= 1 UseB2=F ITyADJ=14
 ICtDFT=  3500011 ScaDFX=  1.000000  1.000000  1.000000  1.000000
 FoFCou: FMM=F IPFlag=           0 FMFlag=      100000 FMFlg1=           0
         NFxFlg=           0 DoJE=T BraDBF=F KetDBF=T FulRan=T
         wScrn=  0.000000 ICntrl=     500 IOpCl=  0 I1Cent=   200000004 NGrid=           0
         NMat0=    1 NMatS0=      1 NMatT0=    0 NMatD0=    1 NMtDS0=    0 NMtDT0=    0
 Symmetry not used in FoFCou.
 Harris En= -1075.73763481555    
 JPrj=0 DoOrth=F DoCkMO=F.
 Leave Link  401 at Mon May 14 00:32:56 2018, MaxMem=  4026531840 cpu:       243.3
 (Enter /opt/local/g09/l502.exe)
 Closed shell SCF:
 Using DIIS extrapolation, IDIIS=  1040.
 Two-electron integral symmetry not used.
 IVT=     3292575 IEndB=     3292575 NGot=  4026531840 MDV=  4024340628
 LenX=  4024340628 LenY=  4023255906
 Requested convergence on RMS density matrix=1.00D-08 within 128 cycles.
 Requested convergence on MAX density matrix=1.00D-06.
 Requested convergence on             energy=1.00D-06.
 No special actions if energy rises.
 Fock matrices will be formed incrementally for  20 cycles.
 Integral accuracy reduced to 1.0D-05 until final iterations.

 Cycle   1  Pass 0  IDiag  1:
 FoFJK:  IHMeth= 1 ICntrl=       0 DoSepK=F KAlg= 0 I1Cent=   0 FoldK=F
 IRaf= 800000000 NMat=   1 IRICut=       1 DoRegI=T DoRafI=F ISym2E= 0.
 FoFCou: FMM=F IPFlag=           0 FMFlag=      100000 FMFlg1=           0
         NFxFlg=           0 DoJE=F BraDBF=F KetDBF=F FulRan=T
         wScrn=  0.000000 ICntrl=       0 IOpCl=  0 I1Cent=           0 NGrid=           0
         NMat0=    1 NMatS0=      1 NMatT0=    0 NMatD0=    1 NMtDS0=    0 NMtDT0=    0
 Symmetry not used in FoFCou.
 E= -1075.81541497579    
 DIIS: error= 1.31D-02 at cycle   1 NSaved=   1.
 NSaved= 1 IEnMin= 1 EnMin= -1075.81541497579     IErMin= 1 ErrMin= 1.31D-02
 ErrMax= 1.31D-02  0.00D+00 EMaxC= 1.00D-01 BMatC= 7.18D-01 BMatP= 7.18D-01
 IDIUse=3 WtCom= 8.69D-01 WtEn= 1.31D-01
 Coeff-Com:  0.100D+01
 Coeff-En:   0.100D+01
 Coeff:      0.100D+01
 Gap=     0.351 Goal=   None    Shift=    0.000
 GapD=    0.351 DampG=1.000 DampE=0.500 DampFc=0.5000 IDamp=-1.
 Damping current iteration by 5.00D-01
 RMSDP=2.61D-03 MaxDP=5.43D-01              OVMax= 1.36D-01

 Cycle   2  Pass 0  IDiag  1:
 RMSU=  1.31D-03    CP:  1.01D+00
 E= -1076.02096683323     Delta-E=       -0.205551857438 Rises=F Damp=T
 DIIS: error= 5.16D-03 at cycle   2 NSaved=   2.
 NSaved= 2 IEnMin= 2 EnMin= -1076.02096683323     IErMin= 2 ErrMin= 5.16D-03
 ErrMax= 5.16D-03  0.00D+00 EMaxC= 1.00D-01 BMatC= 6.81D-02 BMatP= 7.18D-01
 IDIUse=3 WtCom= 9.48D-01 WtEn= 5.16D-02
 Coeff-Com: -0.947D-01 0.109D+01
 Coeff-En:   0.000D+00 0.100D+01
 Coeff:     -0.898D-01 0.109D+01
 Gap=     0.379 Goal=   None    Shift=    0.000
 RMSDP=7.81D-04 MaxDP=6.03D-02 DE=-2.06D-01 OVMax= 7.00D-02

 Cycle   3  Pass 0  IDiag  1:
 RMSU=  7.48D-04    CP:  9.91D-01  1.16D+00
 E= -1076.21995940300     Delta-E=       -0.198992569775 Rises=F Damp=F
 DIIS: error= 3.00D-03 at cycle   3 NSaved=   3.
 NSaved= 3 IEnMin= 3 EnMin= -1076.21995940300     IErMin= 3 ErrMin= 3.00D-03
 ErrMax= 3.00D-03  0.00D+00 EMaxC= 1.00D-01 BMatC= 2.03D-02 BMatP= 6.81D-02
 IDIUse=3 WtCom= 9.70D-01 WtEn= 3.00D-02
 Coeff-Com: -0.115D+00 0.379D+00 0.736D+00
 Coeff-En:   0.000D+00 0.000D+00 0.100D+01
 Coeff:     -0.111D+00 0.367D+00 0.744D+00
 Gap=     0.344 Goal=   None    Shift=    0.000
 RMSDP=2.61D-04 MaxDP=2.88D-02 DE=-1.99D-01 OVMax= 2.91D-02

 Cycle   4  Pass 0  IDiag  1:
 RMSU=  2.25D-04    CP:  9.90D-01  1.25D+00  9.33D-01
 E= -1076.23042955331     Delta-E=       -0.010470150306 Rises=F Damp=F
 DIIS: error= 1.68D-03 at cycle   4 NSaved=   4.
 NSaved= 4 IEnMin= 4 EnMin= -1076.23042955331     IErMin= 4 ErrMin= 1.68D-03
 ErrMax= 1.68D-03  0.00D+00 EMaxC= 1.00D-01 BMatC= 4.88D-03 BMatP= 2.03D-02
 IDIUse=3 WtCom= 9.83D-01 WtEn= 1.68D-02
 Coeff-Com: -0.519D-01 0.118D+00 0.402D+00 0.533D+00
 Coeff-En:   0.000D+00 0.000D+00 0.173D+00 0.827D+00
 Coeff:     -0.510D-01 0.116D+00 0.398D+00 0.538D+00
 Gap=     0.339 Goal=   None    Shift=    0.000
 RMSDP=9.46D-05 MaxDP=7.74D-03 DE=-1.05D-02 OVMax= 1.19D-02

 Cycle   5  Pass 0  IDiag  1:
 RMSU=  5.14D-05    CP:  9.91D-01  1.24D+00  9.59D-01  6.62D-01
 E= -1076.23395208223     Delta-E=       -0.003522528920 Rises=F Damp=F
 DIIS: error= 2.73D-04 at cycle   5 NSaved=   5.
 NSaved= 5 IEnMin= 5 EnMin= -1076.23395208223     IErMin= 5 ErrMin= 2.73D-04
 ErrMax= 2.73D-04  0.00D+00 EMaxC= 1.00D-01 BMatC= 1.45D-04 BMatP= 4.88D-03
 IDIUse=3 WtCom= 9.97D-01 WtEn= 2.73D-03
 Coeff-Com: -0.156D-01 0.305D-01 0.129D+00 0.232D+00 0.625D+00
 Coeff-En:   0.000D+00 0.000D+00 0.000D+00 0.000D+00 0.100D+01
 Coeff:     -0.155D-01 0.304D-01 0.128D+00 0.231D+00 0.626D+00
 Gap=     0.338 Goal=   None    Shift=    0.000
 RMSDP=2.83D-05 MaxDP=4.23D-03 DE=-3.52D-03 OVMax= 2.25D-03

 Cycle   6  Pass 0  IDiag  1:
 RMSU=  2.57D-05    CP:  9.91D-01  1.25D+00  9.59D-01  6.88D-01  1.10D+00
 E= -1076.23404995878     Delta-E=       -0.000097876552 Rises=F Damp=F
 DIIS: error= 5.61D-05 at cycle   6 NSaved=   6.
 NSaved= 6 IEnMin= 6 EnMin= -1076.23404995878     IErMin= 6 ErrMin= 5.61D-05
 ErrMax= 5.61D-05  0.00D+00 EMaxC= 1.00D-01 BMatC= 1.17D-05 BMatP= 1.45D-04
 IDIUse=1 WtCom= 1.00D+00 WtEn= 0.00D+00
 Coeff-Com: -0.203D-02 0.279D-02 0.171D-01 0.485D-01 0.265D+00 0.669D+00
 Coeff:     -0.203D-02 0.279D-02 0.171D-01 0.485D-01 0.265D+00 0.669D+00
 Gap=     0.338 Goal=   None    Shift=    0.000
 RMSDP=3.10D-05 MaxDP=2.45D-03 DE=-9.79D-05 OVMax= 4.16D-04

 Cycle   7  Pass 0  IDiag  1:
 RMSU=  1.88D-05    CP:  9.91D-01  1.25D+00  9.61D-01  7.44D-01  1.37D+00
                    CP:  1.56D+00
 E= -1076.23404923422     Delta-E=        0.000000724560 Rises=F Damp=F
 DIIS: error= 4.15D-05 at cycle   7 NSaved=   7.
 NSaved= 7 IEnMin= 6 EnMin= -1076.23404995878     IErMin= 7 ErrMin= 4.15D-05
 ErrMax= 4.15D-05  0.00D+00 EMaxC= 1.00D-01 BMatC= 1.34D-06 BMatP= 1.17D-05
 IDIUse=1 WtCom= 1.00D+00 WtEn= 0.00D+00
 Coeff-Com:  0.544D-03-0.153D-02-0.488D-02-0.212D-02 0.529D-01 0.244D+00
 Coeff-Com:  0.711D+00
 Coeff:      0.544D-03-0.153D-02-0.488D-02-0.212D-02 0.529D-01 0.244D+00
 Coeff:      0.711D+00
 Gap=     0.338 Goal=   None    Shift=    0.000
 RMSDP=3.86D-05 MaxDP=2.95D-03 DE= 7.25D-07 OVMax= 1.71D-04

 Cycle   8  Pass 0  IDiag  1:
 RMSU=  9.80D-06    CP:  9.91D-01  1.26D+00  9.63D-01  7.95D-01  1.73D+00
                    CP:  2.44D+00  2.03D+00
 E= -1076.23404194288     Delta-E=        0.000007291344 Rises=F Damp=F
 DIIS: error= 6.82D-05 at cycle   8 NSaved=   8.
 NSaved= 8 IEnMin= 6 EnMin= -1076.23404995878     IErMin= 7 ErrMin= 4.15D-05
 ErrMax= 6.82D-05  0.00D+00 EMaxC= 1.00D-01 BMatC= 1.31D-06 BMatP= 1.34D-06
 IDIUse=1 WtCom= 1.00D+00 WtEn= 0.00D+00
 Coeff-Com:  0.461D-03-0.126D-02-0.419D-02-0.266D-02 0.381D-01 0.181D+00
 Coeff-Com:  0.571D+00 0.218D+00
 Coeff:      0.461D-03-0.126D-02-0.419D-02-0.266D-02 0.381D-01 0.181D+00
 Coeff:      0.571D+00 0.218D+00
 Gap=     0.338 Goal=   None    Shift=    0.000
 RMSDP=1.62D-05 MaxDP=1.50D-03 DE= 7.29D-06 OVMax= 3.09D-05

 Cycle   9  Pass 0  IDiag  1:
 RMSU=  2.16D-06    CP:  9.91D-01  1.26D+00  9.63D-01  8.17D-01  1.88D+00
                    CP:  2.79D+00  2.49D+00  1.43D+00
 E= -1076.23404154788     Delta-E=        0.000000394999 Rises=F Damp=F
 DIIS: error= 8.65D-05 at cycle   9 NSaved=   9.
 NSaved= 9 IEnMin= 6 EnMin= -1076.23404995878     IErMin= 7 ErrMin= 4.15D-05
 ErrMax= 8.65D-05  0.00D+00 EMaxC= 1.00D-01 BMatC= 1.67D-06 BMatP= 1.31D-06
 IDIUse=1 WtCom= 1.00D+00 WtEn= 0.00D+00
 Coeff-Com:  0.119D-02-0.248D-02-0.106D-01-0.175D-01-0.187D-01 0.681D-01
 Coeff-Com:  0.850D+00 0.319D+01-0.306D+01
 Coeff:      0.119D-02-0.248D-02-0.106D-01-0.175D-01-0.187D-01 0.681D-01
 Coeff:      0.850D+00 0.319D+01-0.306D+01
 Gap=     0.338 Goal=   None    Shift=    0.000
 RMSDP=8.05D-05 MaxDP=7.58D-03 DE= 3.95D-07 OVMax= 1.10D-04

 Cycle  10  Pass 0  IDiag  1:
 RMSU=  1.46D-05    CP:  9.91D-01  1.25D+00  9.63D-01  7.14D-01  1.23D+00
                    CP:  1.09D+00  1.74D-01 -1.06D+00 -3.00D+00
 E= -1076.23404458669     Delta-E=       -0.000003038812 Rises=F Damp=F
 DIIS: error= 2.05D-05 at cycle  10 NSaved=  10.
 NSaved=10 IEnMin= 6 EnMin= -1076.23404995878     IErMin=10 ErrMin= 2.05D-05
 ErrMax= 2.05D-05  0.00D+00 EMaxC= 1.00D-01 BMatC= 2.03D-07 BMatP= 1.31D-06
 IDIUse=1 WtCom= 1.00D+00 WtEn= 0.00D+00
 Coeff-Com:  0.580D-03-0.119D-02-0.528D-02-0.951D-02-0.143D-01 0.112D-01
 Coeff-Com:  0.383D+00 0.170D+01-0.166D+01 0.592D+00
 Coeff:      0.580D-03-0.119D-02-0.528D-02-0.951D-02-0.143D-01 0.112D-01
 Coeff:      0.383D+00 0.170D+01-0.166D+01 0.592D+00
 Gap=     0.338 Goal=   None    Shift=    0.000
 RMSDP=1.62D-05 MaxDP=2.76D-03 DE=-3.04D-06 OVMax= 4.45D-05

 Cycle  11  Pass 0  IDiag  1:
 RMSU=  1.19D-05    CP:  9.91D-01  1.26D+00  9.66D-01  7.21D-01  1.32D+00
                    CP:  1.18D+00  1.34D-01 -1.49D+00 -3.00D+00  1.51D+00
 E= -1076.23403463242     Delta-E=        0.000009954272 Rises=F Damp=F
 DIIS: error= 2.85D-05 at cycle  11 NSaved=  11.
 NSaved=11 IEnMin= 6 EnMin= -1076.23404995878     IErMin=10 ErrMin= 2.05D-05
 ErrMax= 2.85D-05  0.00D+00 EMaxC= 1.00D-01 BMatC= 1.80D-07 BMatP= 2.03D-07
 IDIUse=1 WtCom= 1.00D+00 WtEn= 0.00D+00
 Coeff-Com:  0.653D-03-0.134D-02-0.594D-02-0.107D-01-0.166D-01 0.110D-01
 Coeff-Com:  0.429D+00 0.194D+01-0.189D+01 0.712D+00-0.164D+00
 Coeff:      0.653D-03-0.134D-02-0.594D-02-0.107D-01-0.166D-01 0.110D-01
 Coeff:      0.429D+00 0.194D+01-0.189D+01 0.712D+00-0.164D+00
 Gap=     0.338 Goal=   None    Shift=    0.000
 RMSDP=4.45D-06 MaxDP=3.82D-04 DE= 9.95D-06 OVMax= 5.85D-06

 Initial convergence to 1.0D-05 achieved.  Increase integral accuracy.
 Cycle  12  Pass 1  IDiag  1:
 E= -1076.23397456418     Delta-E=        0.000060068241 Rises=F Damp=F
 DIIS: error= 2.28D-04 at cycle   1 NSaved=   1.
 NSaved= 1 IEnMin= 1 EnMin= -1076.23397456418     IErMin= 1 ErrMin= 2.28D-04
 ErrMax= 2.28D-04  0.00D+00 EMaxC= 1.00D-01 BMatC= 4.73D-05 BMatP= 4.73D-05
 IDIUse=3 WtCom= 9.98D-01 WtEn= 2.28D-03
 Coeff-Com:  0.100D+01
 Coeff-En:   0.100D+01
 Coeff:      0.100D+01
 Gap=     0.338 Goal=   None    Shift=    0.000
 RMSDP=4.45D-06 MaxDP=3.82D-04 DE= 6.01D-05 OVMax= 4.27D-04

 Cycle  13  Pass 1  IDiag  1:
 RMSU=  2.85D-04    CP:  9.87D-01
 E= -1076.23399712036     Delta-E=       -0.000022556182 Rises=F Damp=F
 DIIS: error= 3.61D-06 at cycle   2 NSaved=   2.
 NSaved= 2 IEnMin= 2 EnMin= -1076.23399712036     IErMin= 2 ErrMin= 3.61D-06
 ErrMax= 3.61D-06  0.00D+00 EMaxC= 1.00D-01 BMatC= 3.48D-08 BMatP= 4.73D-05
 IDIUse=1 WtCom= 1.00D+00 WtEn= 0.00D+00
 Coeff-Com: -0.150D-01 0.101D+01
 Coeff:     -0.150D-01 0.101D+01
 Gap=     0.338 Goal=   None    Shift=    0.000
 RMSDP=1.01D-05 MaxDP=2.78D-03 DE=-2.26D-05 OVMax= 5.40D-05

 Cycle  14  Pass 1  IDiag  1:
 RMSU=  2.89D-06    CP:  9.87D-01  1.03D+00
 E= -1076.23399713988     Delta-E=       -0.000000019520 Rises=F Damp=F
 DIIS: error= 2.55D-06 at cycle   3 NSaved=   3.
 NSaved= 3 IEnMin= 3 EnMin= -1076.23399713988     IErMin= 3 ErrMin= 2.55D-06
 ErrMax= 2.55D-06  0.00D+00 EMaxC= 1.00D-01 BMatC= 2.20D-08 BMatP= 3.48D-08
 IDIUse=1 WtCom= 1.00D+00 WtEn= 0.00D+00
 Coeff-Com: -0.769D-02 0.491D+00 0.517D+00
 Coeff:     -0.769D-02 0.491D+00 0.517D+00
 Gap=     0.338 Goal=   None    Shift=    0.000
 RMSDP=3.09D-07 MaxDP=5.49D-05 DE=-1.95D-08 OVMax= 2.78D-05

 Cycle  15  Pass 1  IDiag  1:
 RMSU=  2.41D-07    CP:  9.87D-01  1.03D+00  1.02D+00
 E= -1076.23399715586     Delta-E=       -0.000000015981 Rises=F Damp=F
 DIIS: error= 7.74D-07 at cycle   4 NSaved=   4.
 NSaved= 4 IEnMin= 4 EnMin= -1076.23399715586     IErMin= 4 ErrMin= 7.74D-07
 ErrMax= 7.74D-07  0.00D+00 EMaxC= 1.00D-01 BMatC= 1.12D-09 BMatP= 2.20D-08
 IDIUse=1 WtCom= 1.00D+00 WtEn= 0.00D+00
 Coeff-Com:  0.375D-04-0.130D-01 0.164D+00 0.849D+00
 Coeff:      0.375D-04-0.130D-01 0.164D+00 0.849D+00
 Gap=     0.338 Goal=   None    Shift=    0.000
 RMSDP=2.26D-07 MaxDP=6.36D-05 DE=-1.60D-08 OVMax= 8.50D-06

 Cycle  16  Pass 1  IDiag  1:
 RMSU=  6.79D-08    CP:  9.87D-01  1.03D+00  1.06D+00  9.85D-01
 E= -1076.23399715680     Delta-E=       -0.000000000947 Rises=F Damp=F
 DIIS: error= 2.09D-07 at cycle   5 NSaved=   5.
 NSaved= 5 IEnMin= 5 EnMin= -1076.23399715680     IErMin= 5 ErrMin= 2.09D-07
 ErrMax= 2.09D-07  0.00D+00 EMaxC= 1.00D-01 BMatC= 2.01D-10 BMatP= 1.12D-09
 IDIUse=1 WtCom= 1.00D+00 WtEn= 0.00D+00
 Coeff-Com:  0.376D-03-0.294D-01 0.591D-01 0.442D+00 0.528D+00
 Coeff:      0.376D-03-0.294D-01 0.591D-01 0.442D+00 0.528D+00
 Gap=     0.338 Goal=   None    Shift=    0.000
 RMSDP=2.53D-08 MaxDP=6.15D-06 DE=-9.47D-10 OVMax= 1.81D-06

 Cycle  17  Pass 1  IDiag  1:
 RMSU=  1.81D-08    CP:  9.87D-01  1.03D+00  1.07D+00  9.93D-01  1.03D+00
 E= -1076.23399715693     Delta-E=       -0.000000000127 Rises=F Damp=F
 DIIS: error= 4.36D-08 at cycle   6 NSaved=   6.
 NSaved= 6 IEnMin= 6 EnMin= -1076.23399715693     IErMin= 6 ErrMin= 4.36D-08
 ErrMax= 4.36D-08  0.00D+00 EMaxC= 1.00D-01 BMatC= 7.11D-12 BMatP= 2.01D-10
 IDIUse=1 WtCom= 1.00D+00 WtEn= 0.00D+00
 Coeff-Com:  0.101D-03-0.675D-02-0.455D-02 0.298D-01 0.144D+00 0.837D+00
 Coeff:      0.101D-03-0.675D-02-0.455D-02 0.298D-01 0.144D+00 0.837D+00
 Gap=     0.338 Goal=   None    Shift=    0.000
 RMSDP=7.53D-09 MaxDP=5.90D-07 DE=-1.27D-10 OVMax= 8.14D-07

 SCF Done:  E(RM062X) =  -1076.23399716     A.U. after   17 cycles
            NFock= 17  Conv=0.75D-08     -V/T= 2.0045
 KE= 1.071362713806D+03 PE=-6.495135725021D+03 EE= 2.336563823898D+03
 Leave Link  502 at Mon May 14 01:03:33 2018, MaxMem=  4026531840 cpu:     29382.9
 (Enter /opt/local/g09/l801.exe)
 DoSCS=F DFT=T ScalE2(SS,OS)=  1.000000  1.000000
 Range of M.O.s used for correlation:     1   917
 NBasis=   917 NAE=    79 NBE=    79 NFC=     0 NFV=     0
 NROrb=    917 NOA=    79 NOB=    79 NVA=   838 NVB=   838

 **** Warning!!: The largest alpha MO coefficient is  0.35474395D+02

 Leave Link  801 at Mon May 14 01:03:33 2018, MaxMem=  4026531840 cpu:         0.4
 (Enter /opt/local/g09/l1101.exe)
 Using compressed storage, NAtomX=    40.
 Will process     41 centers per pass.
   1 Symmetry operations used in ECPInt.
 ECPInt:  NShTT=   59685 NPrTT=  164397 LenC2=   53432 LenP2D=  108732.
 LDataN:  DoStor=T MaxTD1= 7 Len=  274
 Number of processors reduced to   7 by ecpmxn.
 Leave Link 1101 at Mon May 14 01:03:39 2018, MaxMem=  4026531840 cpu:        90.5
 (Enter /opt/local/g09/l1102.exe)
 Symmetrizing basis deriv contribution to polar:
 IMax=3 JMax=2 DiffMx= 0.00D+00
 Leave Link 1102 at Mon May 14 01:03:40 2018, MaxMem=  4026531840 cpu:         3.4
 (Enter /opt/local/g09/l1110.exe)
 Forming Gx(P) for the SCF density, NAtomX=    40.
 Integral derivatives from FoFJK, PRISM(SPDF).
 Do as many integral derivatives as possible in FoFJK.
 G2DrvN: MDV=    4026531416.
 G2DrvN: will do    41 centers at a time, making    1 passes.
 Calling FoFCou, ICntrl=  3107 FMM=F I1Cent=   0 AccDes= 0.00D+00.
 FoFJK:  IHMeth= 1 ICntrl=    3107 DoSepK=F KAlg= 0 I1Cent=   0 FoldK=F
 IRaf=         0 NMat=   1 IRICut=       1 DoRegI=T DoRafI=F ISym2E= 0.
 FoFCou: FMM=F IPFlag=           0 FMFlag=      100000 FMFlg1=           0
         NFxFlg=           0 DoJE=F BraDBF=F KetDBF=F FulRan=T
         wScrn=  0.000000 ICntrl=    3107 IOpCl=  0 I1Cent=           0 NGrid=           0
         NMat0=    1 NMatS0=      1 NMatT0=    0 NMatD0=    1 NMtDS0=    0 NMtDT0=    0
 Symmetry not used in FoFCou.
 End of G2Drv F.D. properties file   721 does not exist.
 End of G2Drv F.D. properties file   722 does not exist.
 End of G2Drv F.D. properties file   788 does not exist.
 Leave Link 1110 at Mon May 14 02:22:27 2018, MaxMem=  4026531840 cpu:     75629.2
 (Enter /opt/local/g09/l1002.exe)
 Minotr:  Closed shell wavefunction.
          IDoAtm=1111111111111111111111111111111111111111
          Direct CPHF calculation.
          Differentiating once with respect to electric field.
                with respect to dipole field.
          Differentiating once with respect to nuclear coordinates.
          Requested convergence is 1.0D-08 RMS, and 1.0D-07 maximum.
          Secondary convergence is 1.0D-12 RMS, and 1.0D-12 maximum.
          NewPWx=T KeepS1=F KeepF1=F KeepIn=T MapXYZ=F SortEE=F KeepMc=T.
          MDV=    4026530519 using IRadAn=       1.
 Generate precomputed XC quadrature information.
          Solving linear equations simultaneously, MaxMat=       0.
 FoFJK:  IHMeth= 1 ICntrl=       0 DoSepK=F KAlg= 0 I1Cent=   0 FoldK=F
 IRaf= 800000000 NMat= 123 IRICut=     307 DoRegI=T DoRafI=T ISym2E= 0.
 FoFCou: FMM=F IPFlag=           0 FMFlag=      100000 FMFlg1=           0
         NFxFlg=           0 DoJE=F BraDBF=F KetDBF=F FulRan=T
         wScrn=  0.000000 ICntrl=       0 IOpCl=  0 I1Cent=           0 NGrid=           0
         NMat0=  123 NMatS0=    123 NMatT0=    0 NMatD0=  123 NMtDS0=    0 NMtDT0=    0
 Symmetry not used in FoFCou.
          There are   123 degrees of freedom in the 1st order CPHF.  IDoFFX=6 NUNeed=     3.
    120 vectors produced by pass  0 Test12= 6.62D-14 1.00D-09 XBig12= 8.12D+01 2.20D+00.
 AX will form   120 AO Fock derivatives at one time.
    120 vectors produced by pass  1 Test12= 6.62D-14 1.00D-09 XBig12= 8.97D+00 3.31D-01.
    120 vectors produced by pass  2 Test12= 6.62D-14 1.00D-09 XBig12= 1.62D-01 3.14D-02.
    120 vectors produced by pass  3 Test12= 6.62D-14 1.00D-09 XBig12= 1.51D-03 2.52D-03.
    120 vectors produced by pass  4 Test12= 6.62D-14 1.00D-09 XBig12= 1.14D-05 2.34D-04.
    120 vectors produced by pass  5 Test12= 6.62D-14 1.00D-09 XBig12= 7.41D-08 1.81D-05.
     97 vectors produced by pass  6 Test12= 6.62D-14 1.00D-09 XBig12= 3.62D-10 1.12D-06.
     22 vectors produced by pass  7 Test12= 6.62D-14 1.00D-09 XBig12= 1.39D-12 6.11D-08.
      3 vectors produced by pass  8 Test12= 6.62D-14 1.00D-09 XBig12= 5.04D-15 4.59D-09.
      3 vectors produced by pass  9 Test12= 6.62D-14 1.00D-09 XBig12= 1.46D-15 1.63D-09.
      2 vectors produced by pass 10 Test12= 6.62D-14 1.00D-09 XBig12= 6.51D-16 1.11D-09.
 InvSVY:  IOpt=1 It=  1 EMax= 3.38D-14
 Solved reduced A of dimension   847 with   123 vectors.
 FullF1:  Do perturbations    1 to     3.
 Isotropic polarizability for W=    0.000000      164.81 Bohr**3.
 End of Minotr F.D. properties file   721 does not exist.
 End of Minotr F.D. properties file   722 does not exist.
 End of Minotr F.D. properties file   788 does not exist.
 Leave Link 1002 at Mon May 14 07:48:47 2018, MaxMem=  4026531840 cpu:    313258.4
 (Enter /opt/local/g09/l601.exe)
 Copying SCF densities to generalized density rwf, IOpCl= 0 IROHF=0.

 **********************************************************************

            Population analysis using the SCF density.

 **********************************************************************

 Alpha  occ. eigenvalues --  -19.89951 -19.87315 -19.85530 -19.82991 -15.06627
 Alpha  occ. eigenvalues --  -15.06532 -15.06268 -15.06245 -15.06190 -15.05705
 Alpha  occ. eigenvalues --  -14.98391 -10.96682 -10.96298 -10.92191 -10.90840
 Alpha  occ. eigenvalues --  -10.89998 -10.87182 -10.86215 -10.84171 -10.83598
 Alpha  occ. eigenvalues --  -10.78314  -1.47057  -1.45654  -1.43425  -1.42134
 Alpha  occ. eigenvalues --   -1.37171  -1.35980  -1.33211  -1.31825  -1.29673
 Alpha  occ. eigenvalues --   -1.28254  -1.24541  -1.16617  -1.14530  -1.11113
 Alpha  occ. eigenvalues --   -1.05162  -1.02789  -1.01716  -1.00532  -0.96411
 Alpha  occ. eigenvalues --   -0.95841  -0.93938  -0.92072  -0.91981  -0.90041
 Alpha  occ. eigenvalues --   -0.88851  -0.88169  -0.87040  -0.85334  -0.84870
 Alpha  occ. eigenvalues --   -0.84387  -0.83247  -0.82878  -0.82281  -0.80380
 Alpha  occ. eigenvalues --   -0.79812  -0.78814  -0.77851  -0.76687  -0.76113
 Alpha  occ. eigenvalues --   -0.75360  -0.74560  -0.73673  -0.73503  -0.71972
 Alpha  occ. eigenvalues --   -0.70543  -0.69244  -0.67616  -0.66739  -0.64808
 Alpha  occ. eigenvalues --   -0.63550  -0.63262  -0.62633  -0.61434  -0.60521
 Alpha  occ. eigenvalues --   -0.59826  -0.58935  -0.57598  -0.56470
 Alpha virt. eigenvalues --   -0.22642  -0.21548  -0.20036  -0.19324  -0.17632
 Alpha virt. eigenvalues --   -0.16416  -0.15978  -0.14812  -0.14128  -0.13319
 Alpha virt. eigenvalues --   -0.13043  -0.12754  -0.12503  -0.11391  -0.10675
 Alpha virt. eigenvalues --   -0.10593  -0.10191  -0.09196  -0.08849  -0.08525
 Alpha virt. eigenvalues --   -0.08118  -0.07493  -0.06919  -0.06420  -0.05811
 Alpha virt. eigenvalues --   -0.05230  -0.04977  -0.04084  -0.03261  -0.02547
 Alpha virt. eigenvalues --   -0.01684  -0.00919  -0.00590  -0.00347   0.00499
 Alpha virt. eigenvalues --    0.01072   0.01493   0.01889   0.02467   0.03228
 Alpha virt. eigenvalues --    0.03847   0.04732   0.04855   0.05489   0.06000
 Alpha virt. eigenvalues --    0.07028   0.07349   0.07629   0.08377   0.08641
 Alpha virt. eigenvalues --    0.08702   0.09646   0.10472   0.10783   0.11131
 Alpha virt. eigenvalues --    0.11668   0.11794   0.12961   0.13299   0.13589
 Alpha virt. eigenvalues --    0.13904   0.15097   0.15463   0.15886   0.15993
 Alpha virt. eigenvalues --    0.16407   0.17211   0.17789   0.18603   0.18850
 Alpha virt. eigenvalues --    0.19208   0.19770   0.19968   0.20329   0.20697
 Alpha virt. eigenvalues --    0.21494   0.21576   0.21792   0.22102   0.22692
 Alpha virt. eigenvalues --    0.23112   0.23353   0.23816   0.24094   0.24323
 Alpha virt. eigenvalues --    0.24898   0.25503   0.25857   0.26740   0.27334
 Alpha virt. eigenvalues --    0.27683   0.28010   0.28260   0.28948   0.29262
 Alpha virt. eigenvalues --    0.29661   0.30077   0.30422   0.31639   0.32001
 Alpha virt. eigenvalues --    0.32141   0.33313   0.33668   0.33810   0.34151
 Alpha virt. eigenvalues --    0.34776   0.35160   0.35454   0.36389   0.37927
 Alpha virt. eigenvalues --    0.38197   0.38409   0.38945   0.39606   0.40523
 Alpha virt. eigenvalues --    0.41237   0.41600   0.42227   0.42870   0.43081
 Alpha virt. eigenvalues --    0.43878   0.45381   0.46377   0.46432   0.46638
 Alpha virt. eigenvalues --    0.46938   0.47894   0.48204   0.48882   0.49962
 Alpha virt. eigenvalues --    0.50804   0.52166   0.52460   0.52810   0.54218
 Alpha virt. eigenvalues --    0.55406   0.55577   0.55885   0.56609   0.57435
 Alpha virt. eigenvalues --    0.58338   0.59372   0.59980   0.60979   0.61253
 Alpha virt. eigenvalues --    0.61866   0.62665   0.62854   0.63455   0.64763
 Alpha virt. eigenvalues --    0.65516   0.66283   0.66683   0.67209   0.67789
 Alpha virt. eigenvalues --    0.68758   0.68938   0.68961   0.70704   0.71163
 Alpha virt. eigenvalues --    0.72008   0.72601   0.73464   0.73804   0.74336
 Alpha virt. eigenvalues --    0.74715   0.75891   0.76435   0.76883   0.77637
 Alpha virt. eigenvalues --    0.77885   0.78783   0.79444   0.79593   0.81028
 Alpha virt. eigenvalues --    0.81607   0.82430   0.83395   0.84195   0.84443
 Alpha virt. eigenvalues --    0.84845   0.86166   0.86298   0.87184   0.87573
 Alpha virt. eigenvalues --    0.88690   0.89580   0.89954   0.90021   0.90806
 Alpha virt. eigenvalues --    0.91139   0.91181   0.93021   0.93631   0.94811
 Alpha virt. eigenvalues --    0.95908   0.96355   0.97169   0.97306   0.97710
 Alpha virt. eigenvalues --    0.98616   0.99811   1.00345   1.00683   1.01448
 Alpha virt. eigenvalues --    1.02458   1.02729   1.03242   1.04683   1.04916
 Alpha virt. eigenvalues --    1.05157   1.05747   1.05865   1.06638   1.08027
 Alpha virt. eigenvalues --    1.08818   1.09403   1.09778   1.09939   1.10324
 Alpha virt. eigenvalues --    1.10782   1.11264   1.12458   1.12752   1.13600
 Alpha virt. eigenvalues --    1.14089   1.14294   1.15106   1.16112   1.17120
 Alpha virt. eigenvalues --    1.17296   1.18016   1.18555   1.18892   1.19619
 Alpha virt. eigenvalues --    1.20266   1.20716   1.21771   1.22333   1.22578
 Alpha virt. eigenvalues --    1.23374   1.24128   1.24802   1.25661   1.26418
 Alpha virt. eigenvalues --    1.26893   1.27871   1.28445   1.28626   1.30127
 Alpha virt. eigenvalues --    1.31196   1.31490   1.31764   1.33292   1.33824
 Alpha virt. eigenvalues --    1.34056   1.34454   1.35500   1.36805   1.37690
 Alpha virt. eigenvalues --    1.38606   1.38935   1.39572   1.40097   1.40935
 Alpha virt. eigenvalues --    1.42363   1.42927   1.44111   1.44183   1.45338
 Alpha virt. eigenvalues --    1.45695   1.46157   1.47200   1.47894   1.49194
 Alpha virt. eigenvalues --    1.49640   1.51186   1.51611   1.52352   1.53733
 Alpha virt. eigenvalues --    1.54470   1.55012   1.56282   1.57427   1.57597
 Alpha virt. eigenvalues --    1.59011   1.59394   1.60593   1.62117   1.62645
 Alpha virt. eigenvalues --    1.63761   1.64187   1.65055   1.66852   1.67491
 Alpha virt. eigenvalues --    1.67965   1.69342   1.70564   1.71806   1.72861
 Alpha virt. eigenvalues --    1.73358   1.73967   1.77250   1.78098   1.78572
 Alpha virt. eigenvalues --    1.79057   1.81506   1.82080   1.82200   1.83329
 Alpha virt. eigenvalues --    1.84631   1.86358   1.87406   1.88606   1.88922
 Alpha virt. eigenvalues --    1.90316   1.91494   1.92697   1.93269   1.94733
 Alpha virt. eigenvalues --    1.95160   1.96332   1.97165   1.98416   1.98952
 Alpha virt. eigenvalues --    1.99559   2.00524   2.01112   2.03281   2.03591
 Alpha virt. eigenvalues --    2.03754   2.04860   2.06040   2.06495   2.08574
 Alpha virt. eigenvalues --    2.09138   2.09889   2.10545   2.11117   2.12879
 Alpha virt. eigenvalues --    2.13336   2.14343   2.14749   2.15878   2.16423
 Alpha virt. eigenvalues --    2.20702   2.20930   2.21865   2.22768   2.24765
 Alpha virt. eigenvalues --    2.24996   2.26903   2.29167   2.30464   2.32546
 Alpha virt. eigenvalues --    2.32659   2.34169   2.34507   2.35385   2.37551
 Alpha virt. eigenvalues --    2.38304   2.39375   2.39958   2.40086   2.40927
 Alpha virt. eigenvalues --    2.41918   2.43226   2.44060   2.45241   2.45782
 Alpha virt. eigenvalues --    2.47472   2.48211   2.49023   2.50983   2.51940
 Alpha virt. eigenvalues --    2.52711   2.53476   2.54103   2.54226   2.55675
 Alpha virt. eigenvalues --    2.56342   2.58172   2.59742   2.60607   2.61275
 Alpha virt. eigenvalues --    2.62287   2.62649   2.63036   2.63767   2.64504
 Alpha virt. eigenvalues --    2.65748   2.66717   2.66977   2.67791   2.68419
 Alpha virt. eigenvalues --    2.68851   2.69557   2.70945   2.71971   2.73264
 Alpha virt. eigenvalues --    2.73567   2.73793   2.74733   2.74843   2.75748
 Alpha virt. eigenvalues --    2.76069   2.76266   2.77497   2.77569   2.78982
 Alpha virt. eigenvalues --    2.79291   2.79788   2.80323   2.80613   2.81514
 Alpha virt. eigenvalues --    2.82349   2.82934   2.83496   2.84228   2.85297
 Alpha virt. eigenvalues --    2.85672   2.86186   2.86457   2.86825   2.88331
 Alpha virt. eigenvalues --    2.88765   2.89538   2.89943   2.90059   2.90627
 Alpha virt. eigenvalues --    2.90865   2.92236   2.92773   2.93214   2.93907
 Alpha virt. eigenvalues --    2.94674   2.95163   2.95892   2.96041   2.96453
 Alpha virt. eigenvalues --    2.97144   2.98357   2.98823   3.00639   3.00784
 Alpha virt. eigenvalues --    3.01295   3.01447   3.01906   3.02902   3.03731
 Alpha virt. eigenvalues --    3.04210   3.04873   3.05802   3.06262   3.06615
 Alpha virt. eigenvalues --    3.07618   3.08249   3.08952   3.09372   3.09674
 Alpha virt. eigenvalues --    3.10866   3.11227   3.11714   3.12235   3.13249
 Alpha virt. eigenvalues --    3.14064   3.14141   3.14782   3.15377   3.15941
 Alpha virt. eigenvalues --    3.16363   3.17023   3.17420   3.18074   3.18816
 Alpha virt. eigenvalues --    3.19423   3.19778   3.20774   3.21231   3.22054
 Alpha virt. eigenvalues --    3.23097   3.23673   3.24755   3.25524   3.26198
 Alpha virt. eigenvalues --    3.26403   3.27133   3.27824   3.28536   3.28930
 Alpha virt. eigenvalues --    3.30399   3.30586   3.30815   3.31916   3.32316
 Alpha virt. eigenvalues --    3.32915   3.33312   3.34291   3.35232   3.35729
 Alpha virt. eigenvalues --    3.36362   3.37124   3.37432   3.37938   3.39533
 Alpha virt. eigenvalues --    3.39874   3.40603   3.41009   3.41747   3.42536
 Alpha virt. eigenvalues --    3.43439   3.43803   3.44794   3.45407   3.46798
 Alpha virt. eigenvalues --    3.47510   3.48896   3.49632   3.50042   3.50440
 Alpha virt. eigenvalues --    3.51214   3.51929   3.52112   3.53319   3.53867
 Alpha virt. eigenvalues --    3.54459   3.55864   3.56429   3.57005   3.57071
 Alpha virt. eigenvalues --    3.58453   3.59076   3.59456   3.59666   3.60380
 Alpha virt. eigenvalues --    3.61388   3.61636   3.63085   3.64438   3.65604
 Alpha virt. eigenvalues --    3.65752   3.66949   3.67697   3.68773   3.69071
 Alpha virt. eigenvalues --    3.69833   3.70909   3.71334   3.71662   3.72317
 Alpha virt. eigenvalues --    3.73618   3.74852   3.75067   3.75695   3.75979
 Alpha virt. eigenvalues --    3.77113   3.77964   3.78803   3.79116   3.79787
 Alpha virt. eigenvalues --    3.80052   3.80630   3.81133   3.82323   3.82648
 Alpha virt. eigenvalues --    3.82980   3.83637   3.84102   3.84616   3.85369
 Alpha virt. eigenvalues --    3.86052   3.86343   3.87593   3.87794   3.88065
 Alpha virt. eigenvalues --    3.88851   3.89348   3.90476   3.90950   3.92067
 Alpha virt. eigenvalues --    3.92444   3.93359   3.93884   3.94983   3.95977
 Alpha virt. eigenvalues --    3.96785   3.97368   3.98471   3.99249   3.99761
 Alpha virt. eigenvalues --    3.99997   4.01569   4.02854   4.03633   4.04266
 Alpha virt. eigenvalues --    4.04463   4.04750   4.05596   4.06465   4.07895
 Alpha virt. eigenvalues --    4.08303   4.09004   4.10279   4.10751   4.13408
 Alpha virt. eigenvalues --    4.14165   4.14655   4.15284   4.15969   4.17657
 Alpha virt. eigenvalues --    4.18152   4.18916   4.19100   4.19397   4.22186
 Alpha virt. eigenvalues --    4.22414   4.23168   4.23508   4.25576   4.26462
 Alpha virt. eigenvalues --    4.26582   4.28652   4.29321   4.29923   4.32201
 Alpha virt. eigenvalues --    4.32326   4.33247   4.34293   4.35391   4.36676
 Alpha virt. eigenvalues --    4.37099   4.38120   4.39929   4.40241   4.41959
 Alpha virt. eigenvalues --    4.42696   4.43957   4.44667   4.45266   4.45705
 Alpha virt. eigenvalues --    4.46496   4.46971   4.48197   4.49275   4.49651
 Alpha virt. eigenvalues --    4.50516   4.52206   4.52648   4.53035   4.53507
 Alpha virt. eigenvalues --    4.54728   4.55175   4.56527   4.57119   4.58628
 Alpha virt. eigenvalues --    4.59780   4.60806   4.61085   4.63133   4.63566
 Alpha virt. eigenvalues --    4.65060   4.65982   4.66963   4.67502   4.68078
 Alpha virt. eigenvalues --    4.68543   4.69591   4.70765   4.71915   4.72643
 Alpha virt. eigenvalues --    4.74646   4.75735   4.76724   4.77689   4.79454
 Alpha virt. eigenvalues --    4.81235   4.81982   4.82228   4.82622   4.83714
 Alpha virt. eigenvalues --    4.84464   4.85414   4.86776   4.87351   4.88476
 Alpha virt. eigenvalues --    4.89170   4.90656   4.90988   4.92794   4.94331
[...]
 583591,0.11127010,0.00204004,0.00111606,-0.00186874,-0.00244233,-0.004
 67344,-0.00123979,0.00254483,0.00502108,0.00725087,-0.00068522,-0.0083
 1899,-0.00471281,0.00044188,0.00014311,-0.00290038,0.00002120,0.000210
 11,0.00004828,0.00002174,-0.00004053,-0.00011590,0.00183614,-0.0002706
 6,-0.00133405,-0.00010066,-0.00006462,0.00002956,-0.00006023,-0.000066
 49,-0.00009363,0.00006088,0.00012028,-0.00023649,-0.00007582,0.0000488
 0,0.00011847,0.00013831,-0.00004287,-0.00008462,0.00004075,-0.00005115
 ,0.00013387,0.00002652,0.00013154,0.00004595,-0.00010372,-0.00016175,0
 .00001901,-0.00036502,0.00052340,0.00014083,-0.00026268,0.00027681,0.0
 0025370,0.00033746,0.00111530,-0.00070110,0.07973875,0.09854579,-0.000
 46372,-0.00146340,0.00065060,0.00124786,0.00031943,-0.00273622,0.00001
 291,0.00214199,0.00498928,-0.00055251,-0.00265101,-0.00238648,0.000028
 56,0.00099274,0.00263966,0.00024862,-0.00027939,0.00119290,-0.00031007
 ,-0.00040549,-0.00089862,-0.00021890,0.00079266,-0.00252031,0.00211152
 ,-0.00244045,-0.00189296,-0.00233152,0.00028935,0.00341607,0.00068159,
 -0.00019374,-0.00047901,0.00009458,0.00083202,0.00074268,-0.00070075,0
 .00066599,-0.00025759,0.00257369,0.01752583,-0.02600697,0.00557817,-0.
 00359124,0.00503693,0.15895253,0.11228727,-0.21616982,-0.00156805,-0.0
 0306773,0.00141438,0.00341877,0.00828808,0.00275435,-0.00265222,-0.012
 03315,-0.02410806,-0.00239153,0.00890854,0.01759484,-0.00204490,-0.001
 11934,0.00901860,-0.00011420,-0.00000484,-0.00018321,0.00017999,-0.000
 05201,0.00010041,0.00118816,-0.00190058,0.00138237,0.00012300,0.000214
 78,0.00013413,-0.00000106,0.00002332,0.00016011,-0.00001645,-0.0001054
 3,0.00029902,-0.00009773,0.00052659,0.00001041,-0.00005594,0.00006321,
 0.00015923,-0.00009714,0.00011493,-0.00002476,0.00015833,-0.00039766,-
 0.00013135,0.00042985,0.00013604,-0.00009400,0.00002988,-0.00015646,0.
 00049590,0.00001557,0.00009523,-0.00030725,-0.00152339,-0.00046511,-0.
 00255537,-0.16086297,-0.12319155,0.22955147,-0.00809109,0.01152274,0.0
 1038191,0.00051737,0.00034638,-0.00108273,0.00038860,0.00075043,0.0007
 9367,-0.00015952,-0.00053765,-0.00002905,0.00001390,0.00039998,-0.0006
 1304,0.00046646,0.00024063,0.00090722,-0.00013553,0.00001675,-0.000181
 55,0.00018594,-0.00037779,0.00003078,0.00001508,-0.00012851,0.00000895
 ,-0.00008629,0.00000042,-0.00008191,0.00009975,-0.00005924,0.00007460,
 0.00019827,-0.00006555,-0.00003919,0.00002536,-0.00004146,0.00006604,-
 0.00054363,0.00055662,-0.00072903,0.00016365,-0.00006313,0.00017415,0.
 00006030,0.00030357,0.00171060,-0.10244462,0.06372994,0.07641453,-0.01
 555716,0.00387838,0.01905602,0.00098376,0.00387312,0.00538743,0.000586
 77,-0.00032308,-0.00257221,0.00002307,-0.00045555,-0.00070569,-0.00087
 087,0.00189915,-0.00104822,-0.00000756,0.00017028,-0.00018136,-0.00033
 011,-0.00010030,-0.00009892,0.00003370,-0.00000589,0.00002476,0.000016
 10,-0.00004124,-0.00001335,0.00008322,0.00001368,0.00013873,0.00002364
 ,0.00000819,-0.00001291,-0.00002087,0.00001420,0.00001503,0.00000429,0
 .00001705,-0.00001600,-0.00005800,0.00000121,-0.00000997,-0.00005824,0
 .00002069,-0.00000087,-0.00004041,-0.00003851,0.00002417,0.00001952,-0
 .00000559,-0.00000639,-0.00004306,-0.00003262,-0.00007850,-0.00059881,
 -0.00126264,-0.00159378,0.11242512,0.01195371,-0.01293318,-0.01674304,
 -0.00107846,0.00142284,0.00085910,0.00016434,-0.00124232,-0.00078542,-
 0.00004895,0.00044684,0.00039816,0.00086546,-0.00003746,0.00069955,-0.
 00095168,0.00048243,-0.00050468,-0.00029729,-0.00002459,0.00021349,-0.
 00013786,0.00011595,0.00016553,-0.00020728,-0.00000585,0.00008546,0.00
 003282,0.00010874,-0.00027035,0.00001147,-0.00001796,0.00003555,-0.000
 05110,0.00004104,0.00018860,0.00004726,-0.00001017,0.00006914,-0.00000
 183,0.00027666,0.00011152,0.00000243,-0.00008555,0.00006733,-0.0002758
 7,-0.00148187,-0.00110078,0.07340999,-0.14397633,-0.11072145,-0.016059
 48,0.00834084,0.01905647,-0.00094697,0.00418308,0.00342515,-0.00034045
 ,-0.00264676,-0.00114216,-0.00002095,-0.00067548,-0.00029284,0.0016417
 5,-0.00258073,0.00247118,0.00001730,0.00005294,-0.00015267,0.00023000,
 0.00020674,0.00024079,-0.00000790,-0.00006097,0.00002598,0.00002076,-0
 .00006192,-0.00000331,-0.00014470,-0.00004607,-0.00013715,0.00000727,0
 .00001967,0.00000003,-0.00000462,0.00000253,-0.00000562,-0.00000169,-0
 .00000275,-0.00000818,0.00000024,-0.00000760,-0.00002672,-0.00003236,0
 .00001934,0.00007981,-0.00002978,-0.00002497,0.00000873,-0.00000521,0.
 00000271,-0.00001696,-0.00000858,0.00001268,-0.00003423,-0.00098624,0.
 00004868,-0.00143387,-0.07177856,0.15428294,-0.00962208,0.00999425,0.0
 1372065,0.00033702,-0.00205436,0.00004498,0.00054862,0.00005333,0.0016
 6791,-0.00036270,-0.00025370,-0.00149209,0.00016010,0.00031552,0.00011
 307,0.00030487,-0.00000883,0.00108111,-0.00013127,0.00005379,-0.000372
 77,0.00001217,-0.00030257,-0.00046347,0.00018930,-0.00022325,-0.000174
 51,-0.00017843,-0.00009933,0.00049016,0.00001958,0.00002084,-0.0000742
 6,-0.00008095,0.00014682,0.00018109,0.00010360,-0.00012803,0.00006351,
 -0.00089261,0.00133855,-0.00132247,0.00044891,-0.00024525,0.00037834,0
 .00038939,-0.00146154,-0.00081131,0.08241903,-0.10243544,-0.17659158,0
 .01512357,-0.00155428,-0.01691275,-0.00132286,-0.00429281,-0.00190648,
 -0.00135105,-0.00059431,0.00145086,0.00015883,0.00054514,-0.00014739,-
 0.00220666,0.00338956,-0.00144916,0.00000478,-0.00002147,-0.00006053,0
 .00002257,-0.00000805,0.00001197,0.00000475,0.00004049,0.00004827,-0.0
 0000962,-0.00007749,0.00002097,0.00015257,0.00009801,0.00010055,0.0000
 1187,0.00004034,0.00001391,0.00001512,0.00001419,0.00001435,-0.0000005
 6,0.00001823,0.00001332,0.00005460,-0.00007519,-0.00001514,0.00012150,
 -0.00002981,0.00002538,-0.00004923,-0.00005198,0.00006327,0.00001722,0
 .00000498,-0.00007080,-0.00008140,-0.00003594,-0.00013793,-0.00137713,
 -0.00133402,-0.00077139,-0.09149591,0.11100847,0.19436724,-0.01267598,
 -0.00412278,-0.01462638,0.00109261,-0.00124161,0.00288711,0.00099618,-
 0.00003767,-0.00140102,0.00020948,0.00021528,0.00072833,-0.00059722,-0
 .00004428,-0.00007227,-0.00039312,0.00235963,0.00041129,-0.00027756,-0
 .00001617,0.00005147,-0.00038942,0.00009233,-0.00103191,0.00026576,-0.
 00007732,-0.00016960,-0.00034778,-0.00005682,0.00044974,-0.00002067,0.
 00010653,-0.00016970,0.00004080,0.00003817,-0.00013729,-0.00000506,-0.
 00003497,-0.00000966,-0.00023523,0.00026989,-0.00022423,0.00015613,-0.
 00000231,0.00004497,0.00023235,0.00013267,0.00057731,-0.16797028,-0.06
 099603,-0.11647926,-0.01973598,-0.02096274,-0.00558126,-0.00203695,0.0
 0464846,0.00383246,0.00110949,0.00025556,-0.00169558,-0.00032983,-0.00
 126388,-0.00009468,0.00031020,-0.00043360,0.00027230,0.00006959,0.0006
 2287,-0.00046552,0.00000925,0.00009808,0.00013278,0.00002361,-0.000016
 95,-0.00002240,0.00007061,-0.00002023,0.00002161,0.00000765,-0.0000152
 4,-0.00004279,-0.00002587,-0.00000580,0.00000466,0.00001386,-0.0000251
 7,-0.00000748,-0.00001419,0.00001743,0.00001813,-0.00000215,0.00000073
 ,0.00000227,0.00000368,0.00002497,0.00003782,-0.00000114,-0.00000637,0
 .00001278,0.00002314,0.00000577,-0.00000408,-0.00002101,-0.00001644,-0
 .00000835,-0.00031783,-0.00031112,-0.00003157,0.01261269,0.00488659,0.
 00853038,0.18802888,0.01825136,0.00664626,0.01990981,0.00122899,0.0022
 0507,-0.00074053,-0.00062448,0.00026852,0.00067243,-0.00021740,-0.0001
 6745,-0.00025950,0.00070931,0.00014908,-0.00009589,0.00123424,-0.00420
 071,0.00049917,0.00015878,-0.00000937,0.00001118,0.00120960,-0.0000264
 7,0.00202804,-0.00035602,0.00010762,0.00030968,0.00051312,0.00020878,-
 0.00091248,0.00012946,-0.00025183,0.00036443,-0.00003681,-0.00007402,0
 .00001074,-0.00003090,0.00012312,0.00000597,0.00033155,-0.00076716,0.0
 0040415,-0.00014856,0.00016484,-0.00010617,-0.00016859,0.00020766,-0.0
 0108189,-0.06081486,-0.08328268,-0.06646963,-0.02105789,-0.01658165,-0
 .00670293,-0.00263067,0.00294832,0.00152126,-0.00040955,-0.00083049,-0
 .00067366,-0.00042774,-0.00140357,0.00012250,-0.00047036,0.00097756,-0
 .00061695,0.00008775,-0.00046768,0.00019600,0.00016649,-0.00035610,-0.
 00004877,-0.00002704,0.00001633,0.00000649,-0.00002916,0.00001332,0.00
 002577,-0.00005991,-0.00007109,0.00008600,0.00003460,-0.00001950,-0.00
 001812,-0.00005120,0.00004089,0.00002092,0.00001415,-0.00004693,-0.000
 05387,-0.00000334,0.00001204,0.00001335,-0.00001475,-0.00001431,-0.000
 00294,0.00001681,0.00001877,-0.00003167,-0.00003493,-0.00001421,0.0000
 3099,0.00001293,-0.00001953,0.00006656,0.00003765,0.00002800,0.0006802
 5,-0.01261141,-0.00439986,-0.01164085,0.07605086,0.09884408,-0.0082794
 3,-0.00433195,-0.00865832,0.00054700,-0.00062856,0.00146847,-0.0000972
 9,-0.00038774,-0.00160934,0.00034454,0.00054474,0.00047128,-0.00048168
 ,-0.00022457,0.00032861,-0.00058741,0.00180860,0.00098225,0.00026014,0
 .00001714,0.00015786,-0.00048381,0.00015893,-0.00111918,0.00029858,0.0
 0001884,-0.00015990,-0.00030946,-0.00009411,0.00061643,-0.00007188,0.0
 0012896,-0.00022173,-0.00000532,0.00003698,-0.00008665,-0.00000617,-0.
 00001746,-0.00003404,0.00017296,-0.00026140,0.00034881,-0.00005993,0.0
 0004843,-0.00009037,-0.00012179,-0.00015454,-0.00071926,-0.12481293,-0
 .07141105,-0.16756804,0.02169817,0.01741766,0.01251068,0.00287956,-0.0
 0241610,-0.00381191,-0.00109210,-0.00015878,0.00213346,0.00014784,0.00
 134997,0.00012743,0.00016045,0.00013853,0.00061124,-0.00024593,0.00078
 084,-0.00030703,0.00020693,0.00019831,0.00015473,0.00001911,0.00000354
 ,-0.00004735,0.00001200,0.00017267,-0.00008273,0.00000487,0.00002651,-
 0.00006267,-0.00002662,-0.00001740,0.00001893,0.00002825,-0.00002849,-
 0.00000920,-0.00001390,0.00001045,0.00003247,0.00001299,0.00001430,0.0
 0000106,0.00000006,-0.00001400,0.00000066,0.00001833,0.00001715,-0.000
 00037,0.00001037,0.00001055,0.00000734,0.00002492,0.00002094,0.0000298
 8,0.00023896,0.00039931,0.00014242,-0.01453094,-0.00576129,-0.01124010
 ,0.12419978,0.06241258,0.17580174,-0.00035386,-0.00031835,0.00019259,-
 0.00001966,-0.00006161,0.00006341,-0.00000514,-0.00009044,0.00001873,-
 0.00002497,0.00004638,-0.00003168,0.00005744,-0.00006090,0.00007345,0.
 00007686,-0.00003994,0.00003142,0.00000300,0.00003990,-0.00001265,-0.0
 0012630,0.00010151,-0.00008978,-0.00012224,0.00007585,0.00000359,0.000
 20802,-0.00007945,0.00006687,-0.00015361,0.00006161,-0.00006705,-0.000
 00122,-0.00002153,0.00001618,-0.00002363,0.00001579,-0.00002699,0.0002
 8344,-0.00020270,0.00030315,-0.00020100,-0.00001502,-0.00012113,0.0000
 5253,0.00026921,-0.00047294,0.00195109,-0.00121396,0.00056190,0.002174
 30,-0.00175651,0.00187311,-0.00850498,-0.01323447,-0.00254604,-0.00184
 896,0.00284726,-0.00366383,-0.07449448,-0.15288000,-0.03090099,-0.0000
 2949,0.00002754,-0.00001116,0.00002005,-0.00003416,0.00000671,0.000146
 26,-0.00011772,0.00006666,-0.00000462,-0.00001495,0.00000988,0.0000001
 6,-0.00002695,0.00000459,0.00006590,0.00005272,-0.00003291,0.00001052,
 0.00000392,0.00000541,0.00004371,0.00001429,-0.00001888,0.00000970,0.0
 0000232,0.00001630,-0.00000204,0.00000796,0.00000085,-0.00000990,-0.00
 001079,0.00000522,0.00000547,0.00001860,-0.00001635,-0.00000289,-0.000
 00385,0.00001764,0.00007578,0.00002476,0.00004399,-0.00029048,-0.00017
 519,0.00057288,0.00005397,0.00005108,-0.00005456,0.00017316,0.00017133
 ,-0.00016676,0.08226410,-0.00007624,-0.00005945,-0.00005492,0.00018884
 ,0.00014690,-0.00024527,-0.00028305,-0.00007247,0.00024853,0.00005715,
 0.00001857,-0.00011246,-0.00005534,-0.00005476,0.00009947,0.00010902,-
 0.00010445,0.00005629,0.00020546,0.00010497,-0.00006195,-0.00008970,0.
 00017599,-0.00027855,0.00002073,0.00005641,-0.00012236,0.00014535,-0.0
 0017664,0.00039319,-0.00016717,0.00012266,-0.00013616,-0.00004806,0.00
 001715,0.00006697,-0.00001622,0.00001570,-0.00004397,0.00020640,-0.000
 13189,0.00029263,-0.00009953,-0.00002713,-0.00018777,0.00016290,0.0002
 4833,-0.00067758,-0.00071754,-0.00014633,-0.00032626,-0.00160910,0.002
 65335,0.00175478,-0.00534865,-0.01623001,-0.00150162,0.00275331,0.0010
 7868,-0.00481541,-0.15946857,-0.37300354,-0.09374206,0.00001776,-0.000
 04395,0.00000071,0.00001220,-0.00003049,-0.00001875,0.00003282,-0.0001
 6488,0.00013778,-0.00002868,-0.00000727,0.00003194,-0.00003224,-0.0000
 3099,-0.00001765,0.00000999,-0.00005779,0.00002524,-0.00001022,-0.0000
 0558,0.00003720,0.00003895,-0.00002289,-0.00000209,0.00000959,-0.00001
 675,0.00004735,0.00000668,0.00000634,-0.00000325,-0.00000682,-0.000004
 55,-0.00000140,0.00000908,0.00002048,-0.00001055,-0.00000411,0.0000068
 4,0.00001220,0.00003437,0.00007605,0.00008276,-0.00040897,-0.00022947,
 0.00106677,-0.00006767,-0.00001384,-0.00000460,-0.00007021,-0.00001565
 ,0.00013499,0.16277085,0.38531445,0.00015261,-0.00008339,0.00006583,0.
 00004620,0.00012816,-0.00028764,-0.00007268,0.00009754,0.00031587,-0.0
 0005698,-0.00010496,-0.00013668,0.00006195,0.00002787,0.00003940,0.000
 08435,0.00006366,0.00006621,0.00003195,0.00000317,-0.00005557,-0.00006
 617,-0.00002497,-0.00009145,-0.00001682,-0.00003008,-0.00003984,0.0000
 0654,0.00000377,0.00006344,-0.00002636,0.00000124,-0.00002599,-0.00001
 549,0.00001757,0.00004785,-0.00000637,-0.00002308,0.00000346,0.0000947
 9,0.00019065,0.00001508,-0.00011859,-0.00014777,0.00001367,-0.00009762
 ,-0.00018583,0.00003704,0.00007152,0.00048044,0.00111053,0.00393916,0.
 00413236,-0.00360062,0.00794233,0.02482762,0.01699324,-0.00141996,-0.0
 0266067,-0.00256221,-0.03271760,-0.09658244,-0.10101225,0.00000272,-0.
 00000998,-0.00000350,0.00001267,-0.00002466,0.00000480,0.00002408,0.00
 003873,0.00002698,0.00000057,0.00000628,0.00001406,-0.00000522,-0.0000
 0850,0.00000440,0.00002314,0.00003440,0.00001468,0.00000440,0.00002430
 ,0.00000331,0.00000729,0.00001391,0.00000266,0.00000276,0.00001217,0.0
 0000421,0.00000078,-0.00000990,-0.00000654,0.00000243,0.00000041,-0.00
 000540,-0.00000372,-0.00000287,0.00000167,0.00000568,0.00000326,-0.000
 00799,0.00004351,0.00007339,-0.00006374,0.00012307,0.00016476,-0.00008
 171,0.00002908,0.00002155,-0.00000378,0.00021971,0.00023516,-0.0002438
 9,0.03390771,0.09529496,0.08696770,0.00024565,-0.00001783,-0.00004888,
 -0.00001224,0.00015579,-0.00022876,-0.00001267,0.00007012,0.00023687,-
 0.00009230,-0.00006799,-0.00008957,0.00012585,0.00001574,0.00004252,0.
 00015199,0.00000782,0.00005570,-0.00000618,0.00001449,-0.00004333,-0.0
 0008735,-0.00006079,0.00002097,-0.00013501,0.00002874,0.00004187,0.000
 10708,-0.00001832,-0.00012422,-0.00005852,0.00001925,0.00000106,0.0000
 0299,-0.00001162,0.00002319,-0.00000112,0.00000441,0.00000751,0.000110
 21,-0.00000843,0.00000739,-0.00007613,-0.00002414,0.00000202,-0.000266
 92,0.00007085,-0.00000711,-0.00090668,0.00005197,-0.00017963,-0.001176
 01,0.00073053,-0.00063417,-0.00253638,0.01025570,0.01512898,0.00388657
 ,-0.00502785,0.00405968,-0.02018706,-0.03449257,-0.02021102,0.00003288
 ,0.00002411,0.00000218,0.00002871,-0.00003868,0.00000954,-0.00003006,0
 .00005033,-0.00001628,0.00000492,-0.00000980,0.00001383,0.00000662,-0.
 00002240,0.00001224,0.00005721,0.00006061,-0.00007194,0.00000954,0.000
 01110,-0.00000673,0.00002214,0.00001046,-0.00002085,0.00000503,0.00000
 702,-0.00000176,-0.00000280,-0.00000125,-0.00000169,-0.00000253,-0.000
 00425,0.00000212,-0.00000336,0.00000026,-0.00000447,-0.00000018,-0.000
 00334,0.00000283,0.00001732,-0.00000325,-0.00000494,0.00044238,-0.0001
 5681,-0.00001807,0.00004521,0.00007535,0.00006668,-0.00005189,-0.00013
 339,0.00010754,-0.00145600,0.00181664,-0.01221744,0.02179909,-0.000052
 14,-0.00007162,0.00013244,0.00010208,0.00000153,-0.00023607,-0.0000812
 1,0.00009438,0.00032142,-0.00001873,-0.00011207,-0.00013555,0.00000584
 ,0.00004433,0.00000779,0.00003742,0.00007368,0.00004450,0.00004563,-0.
 00000055,-0.00006382,-0.00000843,-0.00005093,-0.00013746,0.00008284,-0
 .00006700,-0.00008803,-0.00006502,-0.00001735,0.00017557,0.00001167,0.
 00000104,-0.00003303,-0.00002318,0.00003725,0.00005536,0.00003719,-0.0
 0005758,0.00003693,-0.00022602,0.00033228,-0.00016146,0.00005802,-0.00
 008888,0.00006513,-0.00013151,-0.00049742,0.00060322,0.00014464,-0.000
 51398,-0.00022499,-0.00041193,-0.00261116,-0.00055446,0.00923661,0.012
 96587,0.01754099,-0.00560375,-0.00067399,0.00657492,-0.03389999,-0.090
 67100,-0.10711951,0.00000214,-0.00008204,0.00004264,-0.00001702,-0.000
 00520,0.00003239,-0.00005301,0.00015347,-0.00002218,-0.00000593,0.0000
 1299,0.00001513,-0.00001308,-0.00000108,0.00000863,-0.00000262,-0.0000
 0737,0.00009458,-0.00000466,0.00001548,0.00001209,-0.00000136,0.000001
 13,0.00001853,0.00000211,0.00000432,0.00001141,0.00000357,-0.00001297,
 -0.00000769,0.00000822,0.00000494,-0.00000824,-0.00001565,-0.00001749,
 0.00002031,0.00000809,0.00000290,-0.00001819,-0.00001491,0.00001387,-0
 .00004680,0.00030229,0.00047498,-0.00101256,0.00023293,0.00026959,-0.0
 0014942,-0.00004815,0.00004002,0.00003654,0.00375561,0.00058791,-0.025
 99819,0.02662142,0.08042772,-0.00008796,0.00016644,0.00003056,-0.00016
 704,-0.00027806,0.00034903,0.00034059,0.00008342,-0.00032285,-0.000044
 38,-0.00002877,0.00010667,0.00002080,0.00004722,-0.00011267,-0.0001665
 2,0.00006435,-0.00010661,-0.00023761,-0.00012717,0.00006976,0.00011700
 ,-0.00015337,0.00024683,0.00001890,-0.00006652,0.00009043,-0.00016904,
 0.00018804,-0.00031103,0.00017038,-0.00013692,0.00012035,0.00003717,-0
 .00000990,-0.00006321,-0.00001933,0.00000570,0.00001264,-0.00002392,0.
 00010939,-0.00020499,0.00002141,-0.00003573,0.00013469,-0.00004717,-0.
 00010576,0.00028057,0.00100986,0.00086793,-0.00051859,-0.00249132,-0.0
 0407282,0.00152639,-0.00112111,-0.00406405,-0.02149441,0.00145037,0.00
 167003,0.00289551,-0.01289157,-0.10712186,-0.43617229,-0.00000149,0.00
 004051,0.00002385,-0.00002501,0.00005509,0.00005841,-0.00001952,0.0001
 2792,-0.00012600,0.00002668,0.00001264,-0.00003252,0.00003806,0.000045
 34,0.00003315,-0.00002996,0.00005500,0.00001277,0.00001065,0.00001104,
 -0.00002791,-0.00004238,0.00003035,0.00001734,-0.00000662,0.00002167,-
 0.00003943,-0.00000522,-0.00000650,0.00000444,0.00000702,0.00000813,0.
 00000066,0.00000224,-0.00000999,0.00000186,0.00000362,-0.00000055,-0.0
 0000838,-0.00000732,-0.00000421,-0.00007879,0.00014815,0.00013245,-0.0
 0028066,-0.00011616,-0.00009090,0.00014698,-0.00015986,-0.00017759,0.0
 0012634,0.00037148,0.00258086,0.00241270,0.01408612,0.11016715,0.45119
 841\\0.00011867,-0.00004268,0.00034692,-0.00026597,-0.00000491,-0.0001
 1700,0.00001206,-0.00008249,0.00010930,-0.00012359,-0.00032343,-0.0000
 4554,-0.00009565,-0.00003632,0.00001082,-0.00042267,0.00003781,-0.0000
 9828,-0.00009971,-0.00000797,0.00003689,0.00016500,0.00001280,0.000072
 48,-0.00000643,-0.00005012,0.00008763,0.00026381,-0.00003404,-0.000135
 62,-0.00012522,0.00008062,-0.00007426,0.00028583,0.00021086,0.00008309
 ,0.00018292,-0.00000874,-0.00027870,-0.00014084,-0.00014090,0.00026735
 ,-0.00002734,0.00001953,0.00000316,-0.00004816,-0.00002494,-0.00002477
 ,-0.00000196,-0.00008254,-0.00002468,0.00012945,0.00010032,-0.00001341
 ,-0.00001378,-0.00001952,-0.00019656,0.00004989,0.00005680,0.00006365,
 -0.00000621,0.00004653,0.00006176,0.00013487,-0.00008188,-0.00003539,0
 .00002689,0.00002161,0.00008437,0.00012625,0.00008458,-0.00002991,0.00
 007283,0.00005000,-0.00007463,0.00005144,0.00004655,0.00004219,-0.0000
 8702,0.00005832,0.00006725,0.00011258,0.00001345,-0.00006823,0.0000002
 4,-0.00000149,0.00006197,-0.00000556,-0.00001011,-0.00002790,0.0000180
 9,-0.00009645,0.00002682,-0.00008447,0.00006311,-0.00010789,-0.0000407
 5,-0.00004085,-0.00000909,-0.00005967,0.00012246,0.00000975,0.00004853
 ,-0.00002953,-0.00001830,-0.00000079,0.00000139,-0.00002325,-0.0000968
 6,0.00016892,0.00001634,-0.00002104,0.00002121,-0.00011676,-0.00002918
 ,-0.00008587,0.00001128,0.00000352,-0.00001208,0.00005715\\\@


 TELEVISION IS CALLED A MEDIUM BECAUSE IT ISN'T
 RARE, AND IT ISN'T WELL DONE.
 Job cpu time:       5 days 15 hours 31 minutes 57.5 seconds.
 File lengths (MBytes):  RWF=   2470 Int=      0 D2E=      0 Chk=     50 Scr=      1
 Normal termination of Gaussian 09 at Mon May 14 09:00:54 2018.
