 Entering Gaussian System, Link 0=g09
 Input=asn10.gjf
 Output=asn10.log
 Initial command:
 /opt/local/g09/l1.exe "/home/scratch/oscar/Gau-32533.inp" -scrdir="/home/scratch/oscar/"
 Default is to use a total of  16 processors:
                               16 via shared-memory
                                1 via Linda
 Entering Link 1 = /opt/local/g09/l1.exe PID=     32534.
  
 Copyright (c) 1988,1990,1992,1993,1995,1998,2003,2009,2013,
            Gaussian, Inc.  All Rights Reserved.
  
 This is part of the Gaussian(R) 09 program.  It is based on
 the Gaussian(R) 03 system (copyright 2003, Gaussian, Inc.),
 the Gaussian(R) 98 system (copyright 1998, Gaussian, Inc.),
 the Gaussian(R) 94 system (copyright 1995, Gaussian, Inc.),
 the Gaussian 92(TM) system (copyright 1992, Gaussian, Inc.),
 the Gaussian 90(TM) system (copyright 1990, Gaussian, Inc.),
 the Gaussian 88(TM) system (copyright 1988, Gaussian, Inc.),
 the Gaussian 86(TM) system (copyright 1986, Carnegie Mellon
 University), and the Gaussian 82(TM) system (copyright 1983,
 Carnegie Mellon University). Gaussian is a federally registered
 trademark of Gaussian, Inc.
  
 This software contains proprietary and confidential information,
 including trade secrets, belonging to Gaussian, Inc.
  
 This software is provided under written license and may be
 used, copied, transmitted, or stored only in accord with that
 written license.
  
 The following legend is applicable only to US Government
 contracts under FAR:
  
                    RESTRICTED RIGHTS LEGEND
  
 Use, reproduction and disclosure by the US Government is
 subject to restrictions as set forth in subparagraphs (a)
 and (c) of the Commercial Computer Software - Restricted
 Rights clause in FAR 52.227-19.
  
 Gaussian, Inc.
 340 Quinnipiac St., Bldg. 40, Wallingford CT 06492
  
  
 ---------------------------------------------------------------
 Warning -- This program may not be used in any manner that
 competes with the business of Gaussian, Inc. or will provide
 assistance to any competitor of Gaussian, Inc.  The licensee
 of this program is prohibited from giving any competitor of
 Gaussian, Inc. access to this program.  By using this program,
 the user acknowledges that Gaussian, Inc. is engaged in the
 business of creating and licensing software in the field of
 computational chemistry and represents and warrants to the
 licensee that it is not a competitor of Gaussian, Inc. and that
 it will not use this program in any manner prohibited above.
 ---------------------------------------------------------------
  

 Cite this work as:
 Gaussian 09, Revision D.01,
 M. J. Frisch, G. W. Trucks, H. B. Schlegel, G. E. Scuseria, 
 M. A. Robb, J. R. Cheeseman, G. Scalmani, V. Barone, B. Mennucci, 
 G. A. Petersson, H. Nakatsuji, M. Caricato, X. Li, H. P. Hratchian, 
 A. F. Izmaylov, J. Bloino, G. Zheng, J. L. Sonnenberg, M. Hada, 
 M. Ehara, K. Toyota, R. Fukuda, J. Hasegawa, M. Ishida, T. Nakajima, 
 Y. Honda, O. Kitao, H. Nakai, T. Vreven, J. A. Montgomery, Jr., 
 J. E. Peralta, F. Ogliaro, M. Bearpark, J. J. Heyd, E. Brothers, 
 K. N. Kudin, V. N. Staroverov, T. Keith, R. Kobayashi, J. Normand, 
 K. Raghavachari, A. Rendell, J. C. Burant, S. S. Iyengar, J. Tomasi, 
 M. Cossi, N. Rega, J. M. Millam, M. Klene, J. E. Knox, J. B. Cross, 
 V. Bakken, C. Adamo, J. Jaramillo, R. Gomperts, R. E. Stratmann, 
 O. Yazyev, A. J. Austin, R. Cammi, C. Pomelli, J. W. Ochterski, 
 R. L. Martin, K. Morokuma, V. G. Zakrzewski, G. A. Voth, 
 P. Salvador, J. J. Dannenberg, S. Dapprich, A. D. Daniels, 
 O. Farkas, J. B. Foresman, J. V. Ortiz, J. Cioslowski, 
 and D. J. Fox, Gaussian, Inc., Wallingford CT, 2013.
 
 ******************************************
 Gaussian 09:  EM64L-G09RevD.01 24-Apr-2013
                17-Nov-2019 
 ******************************************
 -------------------------------------------------------------
 # nmr=giao b3lyp/6-31G* nosymm geom=connectivity guess=huckel
 -------------------------------------------------------------
 1/38=1,57=2/1;
 2/12=2,15=1,17=6,18=5,40=1/2;
 3/5=1,6=6,7=1,11=2,16=1,25=1,30=1,74=-5/1,2,8,3;
 4/11=4/1;
 5/5=2,38=5/2;
 8/6=1,10=90,11=11/1;
 10/13=100,31=1,45=16/2;
 6/7=2,8=2,9=2,10=2,28=1/1;
 99/9=1/99;
 -----
 input
 -----
 Symbolic Z-matrix:
 Charge =  0 Multiplicity = 1
 C                    -2.08041  -0.63816   0.17651 
 C                    -2.01655   0.58618  -0.58942 
 C                    -1.12578   1.72517  -0.66829 
 C                    -0.04601   2.19763   0.16884 
 C                    -1.19365  -1.74725   0.45945 
 C                     1.06518   1.64913   0.91351 
 C                     2.00361   0.57941   0.64571 
 C                     0.04308  -2.19985  -0.13694 
 C                     2.09839  -0.52382  -0.28362 
 C                     1.25251  -1.62843  -0.6854 
 As                   -3.63009  -2.45294   1.54066 
 As                   -1.13621  -4.4705    0.84545 
 As                    1.30971  -4.28964  -1.37724 
 As                    3.6886   -2.08621  -1.893 
 As                    4.68539   0.07178   0.39867 
 As                    3.2503    2.16307   2.51486 
 As                    0.90165   4.29135   1.66214 
 As                   -1.08987   4.45787  -0.97641 
 As                   -3.30291   2.3807   -2.22813 
 As                   -4.67695  -0.06553  -0.48753 
 N                    -3.373    -0.96121   0.47306 
 N                    -1.86123  -2.77519   1.06433 
 N                     0.07294  -3.56199  -0.21454 
 N                     1.95123  -2.54803  -1.41615 
 N                     3.39522  -0.7469   -0.64648 
 N                     3.21472   0.84037   1.21855 
 N                     1.59589   2.57261   1.77008 
 N                    -0.079     3.5574    0.2799 
 N                    -1.68984   2.74771  -1.37828 
 N                    -3.22693   0.87526  -1.15029 
 Bq                   -5.       -5.        6.87853 
 Bq                   -4.79592  -5.        6.63599 
 Bq                   -4.59184  -5.        6.39283 
 Bq                   -4.38776  -5.        6.14904 
 Bq                   -4.18367  -5.        5.90463 
 Bq                   -3.97959  -5.        5.6596 
 Bq                   -3.77551  -5.        5.41394 
 Bq                   -3.57143  -5.        5.16766 
 Bq                   -3.36735  -5.        4.92075 
 Bq                   -3.16327  -5.        4.67322 
 Bq                   -2.95918  -5.        4.42506 
 Bq                   -2.7551   -5.        4.17628 
 Bq                   -2.55102  -5.        3.92688 
 Bq                   -2.34694  -5.        3.67685 
 Bq                   -2.14286  -5.        3.4262 
 Bq                   -1.93878  -5.        3.17493 
 Bq                   -1.73469  -5.        2.92303 
 Bq                   -1.53061  -5.        2.6705 
 Bq                   -1.32653  -5.        2.41735 
 Bq                   -1.12245  -5.        2.16358 
 Bq                   -0.91837  -5.        1.90918 
 Bq                   -0.71429  -5.        1.65416 
 Bq                   -0.5102   -5.        1.39852 
 Bq                   -0.30612  -5.        1.14225 
 Bq                   -0.10204  -5.        0.88536 
 Bq                    0.10204  -5.        0.62784 
 Bq                    0.30612  -5.        0.3697 
 Bq                    0.5102   -5.        0.11093 
 Bq                    0.71429  -5.       -0.14846 
 Bq                    0.91837  -5.       -0.40847 
 Bq                    1.12245  -5.       -0.66911 
 Bq                    1.32653  -5.       -0.93037 
 Bq                    1.53061  -5.       -1.19226 
 Bq                    1.73469  -5.       -1.45477 
 Bq                    1.93878  -5.       -1.7179 
 Bq                    2.14286  -5.       -1.98166 
 Bq                    2.34694  -5.       -2.24604 
 Bq                    2.55102  -5.       -2.51105 
 Bq                    2.7551   -5.       -2.77668 
 Bq                    2.95918  -5.       -3.04294 
 Bq                    3.16327  -5.       -3.30981 
 Bq                    3.36735  -5.       -3.57732 
 Bq                    3.57143  -5.       -3.84545 
 Bq                    3.77551  -5.       -4.1142 
 Bq                    3.97959  -5.       -4.38357 
 Bq                    4.18367  -5.       -4.65357 
 Bq                    4.38776  -5.       -4.9242 
 Bq                    4.59184  -5.       -5.19545 
 Bq                    4.79592  -5.       -5.46732 
 Bq                    5.       -5.       -5.73982 
 Bq                   -5.       -4.79592   6.60153 
 Bq                   -4.79592  -4.79592   6.37045 
 Bq                   -4.59184  -4.79592   6.13873 
 Bq                   -4.38776  -4.79592   5.9064 
 Bq                   -4.18367  -4.79592   5.67344 
 Bq                   -3.97959  -4.79592   5.43985 
 Bq                   -3.77551  -4.79592   5.20564 
 Bq                   -3.57143  -4.79592   4.97081 
 Bq                   -3.36735  -4.79592   4.73535 
 Bq                   -3.16327  -4.79592   4.49927 
 Bq                   -2.95918  -4.79592   4.26257 
 Bq                   -2.7551   -4.79592   4.02524 
 Bq                   -2.55102  -4.79592   3.78728 
 Bq                   -2.34694  -4.79592   3.54871 
 Bq                   -2.14286  -4.79592   3.3095 
 Bq                   -1.93878  -4.79592   3.06968 
 Bq                   -1.73469  -4.79592   2.82923 
 Bq                   -1.53061  -4.79592   2.58815 
 Bq                   -1.32653  -4.79592   2.34646 
 Bq                   -1.12245  -4.79592   2.10413 
 Bq                   -0.91837  -4.79592   1.86119 
 Bq                   -0.71429  -4.79592   1.61762 
 Bq                   -0.5102   -4.79592   1.37342 
 Bq                   -0.30612  -4.79592   1.1286 
 Bq                   -0.10204  -4.79592   0.88316 
 Bq                    0.10204  -4.79592   0.63709 
 Bq                    0.30612  -4.79592   0.3904 
 Bq                    0.5102   -4.79592   0.14308 
 Bq                    0.71429  -4.79592  -0.10486 
 Bq                    0.91837  -4.79592  -0.35342 
 Bq                    1.12245  -4.79592  -0.60261 
 Bq                    1.32653  -4.79592  -0.85242 
 Bq                    1.53061  -4.79592  -1.10286 
 Bq                    1.73469  -4.79592  -1.35392 
 Bq                    1.93878  -4.79592  -1.6056 
 Bq                    2.14286  -4.79592  -1.85791 
 Bq                    2.34694  -4.79592  -2.11084 
 Bq                    2.55102  -4.79592  -2.3644 
 Bq                    2.7551   -4.79592  -2.61858 
 Bq                    2.95918  -4.79592  -2.87339 
 Bq                    3.16327  -4.79592  -3.12882 
 Bq                    3.36735  -4.79592  -3.38487 
 Bq                    3.57143  -4.79592  -3.64155 
 Bq                    3.77551  -4.79592  -3.89885 
 Bq                    3.97959  -4.79592  -4.15678 
 Bq                    4.18367  -4.79592  -4.41533 
 Bq                    4.38776  -4.79592  -4.6745 
 Bq                    4.59184  -4.79592  -4.9343 
 Bq                    4.79592  -4.79592  -5.19472 
 Bq                    5.       -4.79592  -5.45577 
 Bq                   -5.       -4.59184   6.32512 
 Bq                   -4.79592  -4.59184   6.10549 
 Bq                   -4.59184  -4.59184   5.88522 
 Bq                   -4.38776  -4.59184   5.66434 
 Bq                   -4.18367  -4.59184   5.44283 
 Bq                   -3.97959  -4.59184   5.22069 
 Bq                   -3.77551  -4.59184   4.99793 
 Bq                   -3.57143  -4.59184   4.77455 
 Bq                   -3.36735  -4.59184   4.55054 
 Bq                   -3.16327  -4.59184   4.32591 
 Bq                   -2.95918  -4.59184   4.10066 
 Bq                   -2.7551   -4.59184   3.87478 
 Bq                   -2.55102  -4.59184   3.64827 
 Bq                   -2.34694  -4.59184   3.42114 
 Bq                   -2.14286  -4.59184   3.19339 
 Bq                   -1.93878  -4.59184   2.96502 
 Bq                   -1.73469  -4.59184   2.73602 
 Bq                   -1.53061  -4.59184   2.50639 
 Bq                   -1.32653  -4.59184   2.27614 
 Bq                   -1.12245  -4.59184   2.04527 
 Bq                   -0.91837  -4.59184   1.81377 
 Bq                   -0.71429  -4.59184   1.58165 
 Bq                   -0.5102   -4.59184   1.34891 
 Bq                   -0.30612  -4.59184   1.11554 
 Bq                   -0.10204  -4.59184   0.88154 
 Bq                    0.10204  -4.59184   0.64693 
 Bq                    0.30612  -4.59184   0.41168 
 Bq                    0.5102   -4.59184   0.17582 
 Bq                    0.71429  -4.59184  -0.06067 
 Bq                    0.91837  -4.59184  -0.29779 
 Bq                    1.12245  -4.59184  -0.53552 
 Bq                    1.32653  -4.59184  -0.77389 
 Bq                    1.53061  -4.59184  -1.01287 
 Bq                    1.73469  -4.59184  -1.25248 
 Bq                    1.93878  -4.59184  -1.49272 
 Bq                    2.14286  -4.59184  -1.73358 
 Bq                    2.34694  -4.59184  -1.97506 
 Bq                    2.55102  -4.59184  -2.21717 
 Bq                    2.7551   -4.59184  -2.4599 
 Bq                    2.95918  -4.59184  -2.70326 
 Bq                    3.16327  -4.59184  -2.94724 
 Bq                    3.36735  -4.59184  -3.19184 
 Bq                    3.57143  -4.59184  -3.43707 
 Bq                    3.77551  -4.59184  -3.68292 
 Bq                    3.97959  -4.59184  -3.9294 
 Bq                    4.18367  -4.59184  -4.1765 
 Bq                    4.38776  -4.59184  -4.42422 
 Bq                    4.59184  -4.59184  -4.67257 
 Bq                    4.79592  -4.59184  -4.92154 
 Bq                    5.       -4.59184  -5.17114 
 Bq                   -5.       -4.38776   6.0493 
 Bq                   -4.79592  -4.38776   5.84111 
 Bq                   -4.59184  -4.38776   5.6323 
 Bq                   -4.38776  -4.38776   5.42286 
 Bq                   -4.18367  -4.38776   5.2128 
 Bq                   -3.97959  -4.38776   5.00212 
 Bq                   -3.77551  -4.38776   4.79081 
 Bq                   -3.57143  -4.38776   4.57887 
 Bq                   -3.36735  -4.38776   4.36632 
 Bq                   -3.16327  -4.38776   4.15313 
 Bq                   -2.95918  -4.38776   3.93933 
 Bq                   -2.7551   -4.38776   3.7249 
 Bq                   -2.55102  -4.38776   3.50984 
 Bq                   -2.34694  -4.38776   3.29417 
 Bq                   -2.14286  -4.38776   3.07786 
 Bq                   -1.93878  -4.38776   2.86094 
 Bq                   -1.73469  -4.38776   2.64339 
 Bq                   -1.53061  -4.38776   2.42521 
 Bq                   -1.32653  -4.38776   2.20641 
 Bq                   -1.12245  -4.38776   1.98699 
 Bq                   -0.91837  -4.38776   1.76694 
 Bq                   -0.71429  -4.38776   1.54627 
 Bq                   -0.5102   -4.38776   1.32498 
 Bq                   -0.30612  -4.38776   1.10306 
 Bq                   -0.10204  -4.38776   0.88051 
 Bq                    0.10204  -4.38776   0.65735 
 Bq                    0.30612  -4.38776   0.43355 
 Bq                    0.5102   -4.38776   0.20914 
 Bq                    0.71429  -4.38776  -0.0159 
 Bq                    0.91837  -4.38776  -0.24157 
 Bq                    1.12245  -4.38776  -0.46786 
 Bq                    1.32653  -4.38776  -0.69477 
 Bq                    1.53061  -4.38776  -0.92231 
 Bq                    1.73469  -4.38776  -1.15047 
 Bq                    1.93878  -4.38776  -1.37925 
 Bq                    2.14286  -4.38776  -1.60866 
 Bq                    2.34694  -4.38776  -1.8387 
 Bq                    2.55102  -4.38776  -2.06935 
 Bq                    2.7551   -4.38776  -2.30063 
 Bq                    2.95918  -4.38776  -2.53254 
 Bq                    3.16327  -4.38776  -2.76507 
 Bq                    3.36735  -4.38776  -2.99823 
 Bq                    3.57143  -4.38776  -3.232 
 Bq                    3.77551  -4.38776  -3.46641 
 Bq                    3.97959  -4.38776  -3.70143 
 Bq                    4.18367  -4.38776  -3.93708 
 Bq                    4.38776  -4.38776  -4.17336 
 Bq                    4.59184  -4.38776  -4.41026 
 Bq                    4.79592  -4.38776  -4.64778 
 Bq                    5.       -4.38776  -4.88593 
 Bq                   -5.       -4.18367   5.77406 
 Bq                   -4.79592  -4.18367   5.57732 
 Bq                   -4.59184  -4.18367   5.37996 
 Bq                   -4.38776  -4.18367   5.18197 
 Bq                   -4.18367  -4.18367   4.98336 
 Bq                   -3.97959  -4.18367   4.78412 
 Bq                   -3.77551  -4.18367   4.58426 
 Bq                   -3.57143  -4.18367   4.38378 
 Bq                   -3.36735  -4.18367   4.18267 
 Bq                   -3.16327  -4.18367   3.98094 
 Bq                   -2.95918  -4.18367   3.77859 
 Bq                   -2.7551   -4.18367   3.5756 
 Bq                   -2.55102  -4.18367   3.372 
 Bq                   -2.34694  -4.18367   3.16777 
 Bq                   -2.14286  -4.18367   2.96292 
 Bq                   -1.93878  -4.18367   2.75744 
 Bq                   -1.73469  -4.18367   2.55134 
 Bq                   -1.53061  -4.18367   2.34462 
 Bq                   -1.32653  -4.18367   2.13727 
 Bq                   -1.12245  -4.18367   1.92929 
 Bq                   -0.91837  -4.18367   1.7207 
 Bq                   -0.71429  -4.18367   1.51148 
 Bq                   -0.5102   -4.18367   1.30163 
 Bq                   -0.30612  -4.18367   1.09116 
 Bq                   -0.10204  -4.18367   0.88007 
 Bq                    0.10204  -4.18367   0.66835 
 Bq                    0.30612  -4.18367   0.45601 
 Bq                    0.5102   -4.18367   0.24304 
 Bq                    0.71429  -4.18367   0.02945 
 Bq                    0.91837  -4.18367  -0.18477 
 Bq                    1.12245  -4.18367  -0.3996 
 Bq                    1.32653  -4.18367  -0.61507 
 Bq                    1.53061  -4.18367  -0.83115 
 Bq                    1.73469  -4.18367  -1.04787 
 Bq                    1.93878  -4.18367  -1.2652 
 Bq                    2.14286  -4.18367  -1.48316 
 Bq                    2.34694  -4.18367  -1.70175 
 Bq                    2.55102  -4.18367  -1.92095 
 Bq                    2.7551   -4.18367  -2.14078 
 Bq                    2.95918  -4.18367  -2.36124 
 Bq                    3.16327  -4.18367  -2.58232 
 Bq                    3.36735  -4.18367  -2.80403 
 Bq                    3.57143  -4.18367  -3.02635 
 Bq                    3.77551  -4.18367  -3.24931 
 Bq                    3.97959  -4.18367  -3.47288 
 Bq                    4.18367  -4.18367  -3.69709 
 Bq                    4.38776  -4.18367  -3.92191 
 Bq                    4.59184  -4.18367  -4.14736 
 Bq                    4.79592  -4.18367  -4.37343 
 Bq                    5.       -4.18367  -4.60013 
 Bq                   -5.       -3.97959   5.4994 
 Bq                   -4.79592  -3.97959   5.31411 
 Bq                   -4.59184  -3.97959   5.1282 
 Bq                   -4.38776  -3.97959   4.94166 
 Bq                   -4.18367  -3.97959   4.7545 
 Bq                   -3.97959  -3.97959   4.56672 
 Bq                   -3.77551  -3.97959   4.37831 
 Bq                   -3.57143  -3.97959   4.18927 
 Bq                   -3.36735  -3.97959   3.99961 
 Bq                   -3.16327  -3.97959   3.80933 
 Bq                   -2.95918  -3.97959   3.61843 
 Bq                   -2.7551   -3.97959   3.4269 
 Bq                   -2.55102  -3.97959   3.23474 
 Bq                   -2.34694  -3.97959   3.04196 
 Bq                   -2.14286  -3.97959   2.84856 
 Bq                   -1.93878  -3.97959   2.65453 
 Bq                   -1.73469  -3.97959   2.45988 
 Bq                   -1.53061  -3.97959   2.26461 
 Bq                   -1.32653  -3.97959   2.06871 
 Bq                   -1.12245  -3.97959   1.87218 
 Bq                   -0.91837  -3.97959   1.67504 
 Bq                   -0.71429  -3.97959   1.47726 
 Bq                   -0.5102   -3.97959   1.27887 
 Bq                   -0.30612  -3.97959   1.07985 
 Bq                   -0.10204  -3.97959   0.8802 
 Bq                    0.10204  -3.97959   0.67994 
 Bq                    0.30612  -3.97959   0.47904 
 Bq                    0.5102   -3.97959   0.27753 
 Bq                    0.71429  -3.97959   0.07539 
 Bq                    0.91837  -3.97959  -0.12738 
 Bq                    1.12245  -3.97959  -0.33077 
 Bq                    1.32653  -3.97959  -0.53478 
 Bq                    1.53061  -3.97959  -0.73942 
 Bq                    1.73469  -3.97959  -0.94468 
 Bq                    1.93878  -3.97959  -1.15057 
 Bq                    2.14286  -3.97959  -1.35708 
 Bq                    2.34694  -3.97959  -1.56421 
 Bq                    2.55102  -3.97959  -1.77197 
 Bq                    2.7551   -3.97959  -1.98035 
 Bq                    2.95918  -3.97959  -2.18936 
 Bq                    3.16327  -3.97959  -2.39899 
 Bq                    3.36735  -3.97959  -2.60924 
 Bq                    3.57143  -3.97959  -2.82012 
 Bq                    3.77551  -3.97959  -3.03162 
 Bq                    3.97959  -3.97959  -3.24375 
 Bq                    4.18367  -3.97959  -3.4565 
 Bq                    4.38776  -3.97959  -3.66988 
 Bq                    4.59184  -3.97959  -3.88388 
 Bq                    4.79592  -3.97959  -4.0985 
 Bq                    5.       -3.97959  -4.31375 
 Bq                   -5.       -3.77551   5.22533 
 Bq                   -4.79592  -3.77551   5.05149 
 Bq                   -4.59184  -3.77551   4.87703 
 Bq                   -4.38776  -3.77551   4.70194 
 Bq                   -4.18367  -3.77551   4.52623 
 Bq                   -3.97959  -3.77551   4.34989 
 Bq                   -3.77551  -3.77551   4.17293 
 Bq                   -3.57143  -3.77551   3.99535 
 Bq                   -3.36735  -3.77551   3.81714 
 Bq                   -3.16327  -3.77551   3.63831 
 Bq                   -2.95918  -3.77551   3.45885 
 Bq                   -2.7551   -3.77551   3.27877 
 Bq                   -2.55102  -3.77551   3.09807 
 Bq                   -2.34694  -3.77551   2.91674 
 Bq                   -2.14286  -3.77551   2.73478 
 Bq                   -1.93878  -3.77551   2.55221 
 Bq                   -1.73469  -3.77551   2.36901 
 Bq                   -1.53061  -3.77551   2.18518 
 Bq                   -1.32653  -3.77551   2.00073 
 Bq                   -1.12245  -3.77551   1.81566 
 Bq                   -0.91837  -3.77551   1.62996 
 Bq                   -0.71429  -3.77551   1.44364 
 Bq                   -0.5102   -3.77551   1.25669 
 Bq                   -0.30612  -3.77551   1.06912 
 Bq                   -0.10204  -3.77551   0.88093 
 Bq                    0.10204  -3.77551   0.69211 
 Bq                    0.30612  -3.77551   0.50266 
 Bq                    0.5102   -3.77551   0.3126 
 Bq                    0.71429  -3.77551   0.12191 
 Bq                    0.91837  -3.77551  -0.06941 
 Bq                    1.12245  -3.77551  -0.26135 
 Bq                    1.32653  -3.77551  -0.45391 
 Bq                    1.53061  -3.77551  -0.6471 
 Bq                    1.73469  -3.77551  -0.84091 
 Bq                    1.93878  -3.77551  -1.03535 
 Bq                    2.14286  -3.77551  -1.23041 
 Bq                    2.34694  -3.77551  -1.42609 
 Bq                    2.55102  -3.77551  -1.6224 
 Bq                    2.7551   -3.77551  -1.81933 
 Bq                    2.95918  -3.77551  -2.01689 
 Bq                    3.16327  -3.77551  -2.21507 
 Bq                    3.36735  -3.77551  -2.41388 
 Bq                    3.57143  -3.77551  -2.6133 
 Bq                    3.77551  -3.77551  -2.81336 
 Bq                    3.97959  -3.77551  -3.01403 
 Bq                    4.18367  -3.77551  -3.21534 
 Bq                    4.38776  -3.77551  -3.41726 
 Bq                    4.59184  -3.77551  -3.61981 
 Bq                    4.79592  -3.77551  -3.82299 
 Bq                    5.       -3.77551  -4.02678 
 Bq                   -5.       -3.57143   4.95184 
 Bq                   -4.79592  -3.57143   4.78945 
 Bq                   -4.59184  -3.57143   4.62644 
 Bq                   -4.38776  -3.57143   4.4628 
 Bq                   -4.18367  -3.57143   4.29854 
 Bq                   -3.97959  -3.57143   4.13365 
 Bq                   -3.77551  -3.57143   3.96814 
 Bq                   -3.57143  -3.57143   3.80201 
 Bq                   -3.36735  -3.57143   3.63525 
 Bq                   -3.16327  -3.57143   3.46787 
 Bq                   -2.95918  -3.57143   3.29986 
 Bq                   -2.7551   -3.57143   3.13123 
 Bq                   -2.55102  -3.57143   2.96197 
 Bq                   -2.34694  -3.57143   2.79209 
 Bq                   -2.14286  -3.57143   2.62159 
 Bq                   -1.93878  -3.57143   2.45046 
 Bq                   -1.73469  -3.57143   2.27871 
 Bq                   -1.53061  -3.57143   2.10634 
 Bq                   -1.32653  -3.57143   1.93334 
 Bq                   -1.12245  -3.57143   1.75971 
 Bq                   -0.91837  -3.57143   1.58546 
 Bq                   -0.71429  -3.57143   1.41059 
 Bq                   -0.5102   -3.57143   1.2351 
 Bq                   -0.30612  -3.57143   1.05898 
 Bq                   -0.10204  -3.57143   0.88223 
 Bq                    0.10204  -3.57143   0.70486 
 Bq                    0.30612  -3.57143   0.52687 
 Bq                    0.5102   -3.57143   0.34825 
 Bq                    0.71429  -3.57143   0.16901 
 Bq                    0.91837  -3.57143  -0.01085 
 Bq                    1.12245  -3.57143  -0.19134 
 Bq                    1.32653  -3.57143  -0.37246 
 Bq                    1.53061  -3.57143  -0.5542 
 Bq                    1.73469  -3.57143  -0.73656 
 Bq                    1.93878  -3.57143  -0.91954 
 Bq                    2.14286  -3.57143  -1.10315 
 Bq                    2.34694  -3.57143  -1.28739 
 Bq                    2.55102  -3.57143  -1.47225 
 Bq                    2.7551   -3.57143  -1.65773 
 Bq                    2.95918  -3.57143  -1.84384 
 Bq                    3.16327  -3.57143  -2.03057 
 Bq                    3.36735  -3.57143  -2.21792 
 Bq                    3.57143  -3.57143  -2.4059 
 Bq                    3.77551  -3.57143  -2.59451 
 Bq                    3.97959  -3.57143  -2.78373 
 Bq                    4.18367  -3.57143  -2.97359 
 Bq                    4.38776  -3.57143  -3.16406 
 Bq                    4.59184  -3.57143  -3.35516 
 Bq                    4.79592  -3.57143  -3.54689 
 Bq                    5.       -3.57143  -3.73923 
 Bq                   -5.       -3.36735   4.67894 
 Bq                   -4.79592  -3.36735   4.528 
 Bq                   -4.59184  -3.36735   4.37643 
 Bq                   -4.38776  -3.36735   4.22424 
 Bq                   -4.18367  -3.36735   4.07143 
 Bq                   -3.97959  -3.36735   3.918 
 Bq                   -3.77551  -3.36735   3.76394 
 Bq                   -3.57143  -3.36735   3.60925 
 Bq                   -3.36735  -3.36735   3.45394 
 Bq                   -3.16327  -3.36735   3.29801 
 Bq                   -2.95918  -3.36735   3.14145 
 Bq                   -2.7551   -3.36735   2.98427 
 Bq                   -2.55102  -3.36735   2.82647 
 Bq                   -2.34694  -3.36735   2.66804 
 Bq                   -2.14286  -3.36735   2.50898 
 Bq                   -1.93878  -3.36735   2.34931 
 Bq                   -1.73469  -3.36735   2.189 
 Bq                   -1.53061  -3.36735   2.02808 
 Bq                   -1.32653  -3.36735   1.86653 
 Bq                   -1.12245  -3.36735   1.70435 
 Bq                   -0.91837  -3.36735   1.54156 
 Bq                   -0.71429  -3.36735   1.37813 
 Bq                   -0.5102   -3.36735   1.21409 
 Bq                   -0.30612  -3.36735   1.04942 
 Bq                   -0.10204  -3.36735   0.88412 
 Bq                    0.10204  -3.36735   0.7182 
 Bq                    0.30612  -3.36735   0.55166 
 Bq                    0.5102   -3.36735   0.38449 
 Bq                    0.71429  -3.36735   0.2167 
 Bq                    0.91837  -3.36735   0.04828 
 Bq                    1.12245  -3.36735  -0.12076 
 Bq                    1.32653  -3.36735  -0.29042 
 Bq                    1.53061  -3.36735  -0.46071 
 Bq                    1.73469  -3.36735  -0.63162 
 Bq                    1.93878  -3.36735  -0.80316 
 Bq                    2.14286  -3.36735  -0.97532 
 Bq                    2.34694  -3.36735  -1.1481 
 Bq                    2.55102  -3.36735  -1.32151 
 Bq                    2.7551   -3.36735  -1.49554 
 Bq                    2.95918  -3.36735  -1.6702 
 Bq                    3.16327  -3.36735  -1.84548 
 Bq                    3.36735  -3.36735  -2.02139 
 Bq                    3.57143  -3.36735  -2.19792 
 Bq                    3.77551  -3.36735  -2.37507 
 Bq                    3.97959  -3.36735  -2.55285 
 Bq                    4.18367  -3.36735  -2.73125 
 Bq                    4.38776  -3.36735  -2.91028 
 Bq                    4.59184  -3.36735  -3.08993 
 Bq                    4.79592  -3.36735  -3.2702 
 Bq                    5.       -3.36735  -3.4511 
 Bq                   -5.       -3.16327   4.40662 
 Bq                   -4.79592  -3.16327   4.26713 
 Bq                   -4.59184  -3.16327   4.12701 
 Bq                   -4.38776  -3.16327   3.98627 
 Bq                   -4.18367  -3.16327   3.84491 
 Bq                   -3.97959  -3.16327   3.70292 
 Bq                   -3.77551  -3.16327   3.56031 
 Bq                   -3.57143  -3.16327   3.41708 
 Bq                   -3.36735  -3.16327   3.27322 
 Bq                   -3.16327  -3.16327   3.12874 
 Bq                   -2.95918  -3.16327   2.98363 
 Bq                   -2.7551   -3.16327   2.8379 
 Bq                   -2.55102  -3.16327   2.69154 
 Bq                   -2.34694  -3.16327   2.54456 
 Bq                   -2.14286  -3.16327   2.39696 
 Bq                   -1.93878  -3.16327   2.24873 
 Bq                   -1.73469  -3.16327   2.09988 
 Bq                   -1.53061  -3.16327   1.9504 
 Bq                   -1.32653  -3.16327   1.8003 
 Bq                   -1.12245  -3.16327   1.64958 
 Bq                   -0.91837  -3.16327   1.49823 
 Bq                   -0.71429  -3.16327   1.34626 
 Bq                   -0.5102   -3.16327   1.19366 
 Bq                   -0.30612  -3.16327   1.04044 
 Bq                   -0.10204  -3.16327   0.88659 
 Bq                    0.10204  -3.16327   0.73213 
 Bq                    0.30612  -3.16327   0.57703 
 Bq                    0.5102   -3.16327   0.42131 
 Bq                    0.71429  -3.16327   0.26497 
 Bq                    0.91837  -3.16327   0.10801 
 Bq                    1.12245  -3.16327  -0.04958 
 Bq                    1.32653  -3.16327  -0.2078 
 Bq                    1.53061  -3.16327  -0.36664 
 Bq                    1.73469  -3.16327  -0.5261 
 Bq                    1.93878  -3.16327  -0.68619 
 Bq                    2.14286  -3.16327  -0.8469 
 Bq                    2.34694  -3.16327  -1.00823 
 Bq                    2.55102  -3.16327  -1.17019 
 Bq                    2.7551   -3.16327  -1.33277 
 Bq                    2.95918  -3.16327  -1.49598 
 Bq                    3.16327  -3.16327  -1.65981 
 Bq                    3.36735  -3.16327  -1.82427 
 Bq                    3.57143  -3.16327  -1.98935 
 Bq                    3.77551  -3.16327  -2.15505 
 Bq                    3.97959  -3.16327  -2.32138 
 Bq                    4.18367  -3.16327  -2.48833 
 Bq                    4.38776  -3.16327  -2.65591 
 Bq                    4.59184  -3.16327  -2.82411 
 Bq                    4.79592  -3.16327  -2.99293 
 Bq                    5.       -3.16327  -3.16238 
 Bq                   -5.       -2.95918   4.13488 
 Bq                   -4.79592  -2.95918   4.00684 
 Bq                   -4.59184  -2.95918   3.87817 
 Bq                   -4.38776  -2.95918   3.74889 
 Bq                   -4.18367  -2.95918   3.61897 
 Bq                   -3.97959  -2.95918   3.48844 
 Bq                   -3.77551  -2.95918   3.35728 
 Bq                   -3.57143  -2.95918   3.22549 
 Bq                   -3.36735  -2.95918   3.09308 
 Bq                   -3.16327  -2.95918   2.96005 
 Bq                   -2.95918  -2.95918   2.82639 
 Bq                   -2.7551   -2.95918   2.69211 
 Bq                   -2.55102  -2.95918   2.5572 
 Bq                   -2.34694  -2.95918   2.42167 
 Bq                   -2.14286  -2.95918   2.28552 
 Bq                   -1.93878  -2.95918   2.14874 
 Bq                   -1.73469  -2.95918   2.01134 
 Bq                   -1.53061  -2.95918   1.87331 
 Bq                   -1.32653  -2.95918   1.73466 
 Bq                   -1.12245  -2.95918   1.59539 
 Bq                   -0.91837  -2.95918   1.45549 
 Bq                   -0.71429  -2.95918   1.31497 
 Bq                   -0.5102   -2.95918   1.17382 
 Bq                   -0.30612  -2.95918   1.03205 
 Bq                   -0.10204  -2.95918   0.88965 
 Bq                    0.10204  -2.95918   0.74663 
 Bq                    0.30612  -2.95918   0.60299 
 Bq                    0.5102   -2.95918   0.45872 
 Bq                    0.71429  -2.95918   0.31383 
 Bq                    0.91837  -2.95918   0.16831 
 Bq                    1.12245  -2.95918   0.02217 
 Bq                    1.32653  -2.95918  -0.12459 
 Bq                    1.53061  -2.95918  -0.27198 
 Bq                    1.73469  -2.95918  -0.41999 
 Bq                    1.93878  -2.95918  -0.56863 
 Bq                    2.14286  -2.95918  -0.71789 
 Bq                    2.34694  -2.95918  -0.86778 
 Bq                    2.55102  -2.95918  -1.01829 
 Bq                    2.7551   -2.95918  -1.16942 
 Bq                    2.95918  -2.95918  -1.32118 
 Bq                    3.16327  -2.95918  -1.47356 
 Bq                    3.36735  -2.95918  -1.62656 
 Bq                    3.57143  -2.95918  -1.78019 
 Bq                    3.77551  -2.95918  -1.93445 
 Bq                    3.97959  -2.95918  -2.08933 
 Bq                    4.18367  -2.95918  -2.24483 
 Bq                    4.38776  -2.95918  -2.40096 
 Bq                    4.59184  -2.95918  -2.55771 
 Bq                    4.79592  -2.95918  -2.71508 
 Bq                    5.       -2.95918  -2.87308 
 Bq                   -5.       -2.7551    3.86373 
 Bq                   -4.79592  -2.7551    3.74714 
 Bq                   -4.59184  -2.7551    3.62992 
 Bq                   -4.38776  -2.7551    3.51208 
 Bq                   -4.18367  -2.7551    3.39362 
 Bq                   -3.97959  -2.7551    3.27453 
 Bq                   -3.77551  -2.7551    3.15482 
 Bq                   -3.57143  -2.7551    3.03449 
 Bq                   -3.36735  -2.7551    2.91353 
 Bq                   -3.16327  -2.7551    2.79194 
 Bq                   -2.95918  -2.7551    2.66974 
 Bq                   -2.7551   -2.7551    2.54691 
 Bq                   -2.55102  -2.7551    2.42345 
 Bq                   -2.34694  -2.7551    2.29937 
 Bq                   -2.14286  -2.7551    2.17466 
 Bq                   -1.93878  -2.7551    2.04934 
 Bq                   -1.73469  -2.7551    1.92338 
 Bq                   -1.53061  -2.7551    1.79681 
 Bq                   -1.32653  -2.7551    1.66961 
 Bq                   -1.12245  -2.7551    1.54178 
 Bq                   -0.91837  -2.7551    1.41333 
 Bq                   -0.71429  -2.7551    1.28426 
 Bq                   -0.5102   -2.7551    1.15456 
 Bq                   -0.30612  -2.7551    1.02424 
 Bq                   -0.10204  -2.7551    0.89329 
 Bq                    0.10204  -2.7551    0.76172 
 Bq                    0.30612  -2.7551    0.62953 
 Bq                    0.5102   -2.7551    0.49671 
 Bq                    0.71429  -2.7551    0.36327 
 Bq                    0.91837  -2.7551    0.2292 
 Bq                    1.12245  -2.7551    0.09451 
 Bq                    1.32653  -2.7551   -0.0408 
 Bq                    1.53061  -2.7551   -0.17674 
 Bq                    1.73469  -2.7551   -0.3133 
 Bq                    1.93878  -2.7551   -0.45049 
 Bq                    2.14286  -2.7551   -0.5883 
 Bq                    2.34694  -2.7551   -0.72674 
 Bq                    2.55102  -2.7551   -0.8658 
 Bq                    2.7551   -2.7551   -1.00548 
 Bq                    2.95918  -2.7551   -1.14579 
 Bq                    3.16327  -2.7551   -1.28672 
 Bq                    3.36735  -2.7551   -1.42828 
 Bq                    3.57143  -2.7551   -1.57046 
 Bq                    3.77551  -2.7551   -1.71326 
 Bq                    3.97959  -2.7551   -1.85669 
 Bq                    4.18367  -2.7551   -2.00074 
 Bq                    4.38776  -2.7551   -2.14542 
 Bq                    4.59184  -2.7551   -2.29072 
 Bq                    4.79592  -2.7551   -2.43664 
 Bq                    5.       -2.7551   -2.58319 
 Bq                   -5.       -2.55102   3.59316 
 Bq                   -4.79592  -2.55102   3.48802 
 Bq                   -4.59184  -2.55102   3.38225 
 Bq                   -4.38776  -2.55102   3.27586 
 Bq                   -4.18367  -2.55102   3.16885 
 Bq                   -3.97959  -2.55102   3.06121 
 Bq                   -3.77551  -2.55102   2.95295 
 Bq                   -3.57143  -2.55102   2.84407 
 Bq                   -3.36735  -2.55102   2.73456 
 Bq                   -3.16327  -2.55102   2.62442 
 Bq                   -2.95918  -2.55102   2.51367 
 Bq                   -2.7551   -2.55102   2.40228 
 Bq                   -2.55102  -2.55102   2.29028 
 Bq                   -2.34694  -2.55102   2.17765 
 Bq                   -2.14286  -2.55102   2.06439 
 Bq                   -1.93878  -2.55102   1.95051 
 Bq                   -1.73469  -2.55102   1.83601 
 Bq                   -1.53061  -2.55102   1.72089 
 Bq                   -1.32653  -2.55102   1.60513 
 Bq                   -1.12245  -2.55102   1.48876 
 Bq                   -0.91837  -2.55102   1.37176 
 Bq                   -0.71429  -2.55102   1.25414 
 Bq                   -0.5102   -2.55102   1.13589 
 Bq                   -0.30612  -2.55102   1.01702 
 Bq                   -0.10204  -2.55102   0.89752 
 Bq                    0.10204  -2.55102   0.7774 
 Bq                    0.30612  -2.55102   0.65666 
 Bq                    0.5102   -2.55102   0.53529 
 Bq                    0.71429  -2.55102   0.4133 
 Bq                    0.91837  -2.55102   0.29068 
 Bq                    1.12245  -2.55102   0.16744 
 Bq                    1.32653  -2.55102   0.04357 
 Bq                    1.53061  -2.55102  -0.08092 
 Bq                    1.73469  -2.55102  -0.20603 
 Bq                    1.93878  -2.55102  -0.33177 
 Bq                    2.14286  -2.55102  -0.45813 
 Bq                    2.34694  -2.55102  -0.58511 
 Bq                    2.55102  -2.55102  -0.71272 
 Bq                    2.7551   -2.55102  -0.84096 
 Bq                    2.95918  -2.55102  -0.96982 
 Bq                    3.16327  -2.55102  -1.0993 
 Bq                    3.36735  -2.55102  -1.2294 
 Bq                    3.57143  -2.55102  -1.36013 
 Bq                    3.77551  -2.55102  -1.49149 
 Bq                    3.97959  -2.55102  -1.62347 
 Bq                    4.18367  -2.55102  -1.75607 
 Bq                    4.38776  -2.55102  -1.8893 
 Bq                    4.59184  -2.55102  -2.02315 
 Bq                    4.79592  -2.55102  -2.15762 
 Bq                    5.       -2.55102  -2.29272 
 Bq                   -5.       -2.34694   3.32317 
 Bq                   -4.79592  -2.34694   3.22948 
 Bq                   -4.59184  -2.34694   3.13517 
 Bq                   -4.38776  -2.34694   3.04023 
 Bq                   -4.18367  -2.34694   2.94467 
 Bq                   -3.97959  -2.34694   2.84848 
 Bq                   -3.77551  -2.34694   2.75167 
 Bq                   -3.57143  -2.34694   2.65423 
 Bq                   -3.36735  -2.34694   2.55617 
 Bq                   -3.16327  -2.34694   2.45749 
 Bq                   -2.95918  -2.34694   2.35818 
 Bq                   -2.7551   -2.34694   2.25825 
 Bq                   -2.55102  -2.34694   2.15769 
 Bq                   -2.34694  -2.34694   2.05651 
 Bq                   -2.14286  -2.34694   1.95471 
 Bq                   -1.93878  -2.34694   1.85228 
 Bq                   -1.73469  -2.34694   1.74922 
 Bq                   -1.53061  -2.34694   1.64555 
 Bq                   -1.32653  -2.34694   1.54125 
 Bq                   -1.12245  -2.34694   1.43632 
 Bq                   -0.91837  -2.34694   1.33077 
 Bq                   -0.71429  -2.34694   1.2246 
 Bq                   -0.5102   -2.34694   1.1178 
 Bq                   -0.30612  -2.34694   1.01038 
 Bq                   -0.10204  -2.34694   0.90233 
 Bq                    0.10204  -2.34694   0.79366 
 Bq                    0.30612  -2.34694   0.68437 
 Bq                    0.5102   -2.34694   0.57445 
 Bq                    0.71429  -2.34694   0.46391 
 Bq                    0.91837  -2.34694   0.35274 
 Bq                    1.12245  -2.34694   0.24095 
 Bq                    1.32653  -2.34694   0.12853 
 Bq                    1.53061  -2.34694   0.01549 
 Bq                    1.73469  -2.34694  -0.09817 
 Bq                    1.93878  -2.34694  -0.21246 
 Bq                    2.14286  -2.34694  -0.32737 
 Bq                    2.34694  -2.34694  -0.44291 
 Bq                    2.55102  -2.34694  -0.55907 
 Bq                    2.7551   -2.34694  -0.67585 
 Bq                    2.95918  -2.34694  -0.79326 
 Bq                    3.16327  -2.34694  -0.91129 
 Bq                    3.36735  -2.34694  -1.02995 
 Bq                    3.57143  -2.34694  -1.14923 
 Bq                    3.77551  -2.34694  -1.26913 
 Bq                    3.97959  -2.34694  -1.38966 
 Bq                    4.18367  -2.34694  -1.51082 
 Bq                    4.38776  -2.34694  -1.63259 
 Bq                    4.59184  -2.34694  -1.75499 
 Bq                    4.79592  -2.34694  -1.87802 
 Bq                    5.       -2.34694  -2.00167 
 Bq                   -5.       -2.14286   3.05377 
 Bq                   -4.79592  -2.14286   2.97153 
 Bq                   -4.59184  -2.14286   2.88867 
 Bq                   -4.38776  -2.14286   2.80518 
 Bq                   -4.18367  -2.14286   2.72107 
 Bq                   -3.97959  -2.14286   2.63633 
 Bq                   -3.77551  -2.14286   2.55097 
 Bq                   -3.57143  -2.14286   2.46498 
 Bq                   -3.36735  -2.14286   2.37837 
 Bq                   -3.16327  -2.14286   2.29114 
 Bq                   -2.95918  -2.14286   2.20328 
 Bq                   -2.7551   -2.14286   2.1148 
 Bq                   -2.55102  -2.14286   2.02569 
 Bq                   -2.34694  -2.14286   1.93596 
 Bq                   -2.14286  -2.14286   1.8456 
 Bq                   -1.93878  -2.14286   1.75462 
 Bq                   -1.73469  -2.14286   1.66302 
 Bq                   -1.53061  -2.14286   1.57079 
 Bq                   -1.32653  -2.14286   1.47794 
 Bq                   -1.12245  -2.14286   1.38447 
 Bq                   -0.91837  -2.14286   1.29037 
 Bq                   -0.71429  -2.14286   1.19564 
 Bq                   -0.5102   -2.14286   1.10029 
 Bq                   -0.30612  -2.14286   1.00432 
 Bq                   -0.10204  -2.14286   0.90773 
 Bq                    0.10204  -2.14286   0.81051 
 Bq                    0.30612  -2.14286   0.71266 
 Bq                    0.5102   -2.14286   0.61419 
 Bq                    0.71429  -2.14286   0.5151 
 Bq                    0.91837  -2.14286   0.41538 
 Bq                    1.12245  -2.14286   0.31504 
 Bq                    1.32653  -2.14286   0.21407 
 Bq                    1.53061  -2.14286   0.11249 
 Bq                    1.73469  -2.14286   0.01027 
 Bq                    1.93878  -2.14286  -0.09257 
 Bq                    2.14286  -2.14286  -0.19603 
 Bq                    2.34694  -2.14286  -0.30011 
 Bq                    2.55102  -2.14286  -0.40482 
 Bq                    2.7551   -2.14286  -0.51016 
 Bq                    2.95918  -2.14286  -0.61612 
 Bq                    3.16327  -2.14286  -0.7227 
 Bq                    3.36735  -2.14286  -0.82991 
 Bq                    3.57143  -2.14286  -0.93774 
 Bq                    3.77551  -2.14286  -1.04619 
 Bq                    3.97959  -2.14286  -1.15527 
 Bq                    4.18367  -2.14286  -1.26498 
 Bq                    4.38776  -2.14286  -1.3753 
 Bq                    4.59184  -2.14286  -1.48626 
 Bq                    4.79592  -2.14286  -1.59783 
 Bq                    5.       -2.14286  -1.71003 
 Bq                   -5.       -1.93878   2.78496 
 Bq                   -4.79592  -1.93878   2.71417 
 Bq                   -4.59184  -1.93878   2.64275 
 Bq                   -4.38776  -1.93878   2.57071 
 Bq                   -4.18367  -1.93878   2.49805 
 Bq                   -3.97959  -1.93878   2.42476 
 Bq                   -3.77551  -1.93878   2.35085 
 Bq                   -3.57143  -1.93878   2.27631 
 Bq                   -3.36735  -1.93878   2.20115 
 Bq                   -3.16327  -1.93878   2.12537 
 Bq                   -2.95918  -1.93878   2.04896 
 Bq                   -2.7551   -1.93878   1.97193 
 Bq                   -2.55102  -1.93878   1.89427 
 Bq                   -2.34694  -1.93878   1.81599 
 Bq                   -2.14286  -1.93878   1.73708 
 Bq                   -1.93878  -1.93878   1.65755 
 Bq                   -1.73469  -1.93878   1.5774 
 Bq                   -1.53061  -1.93878   1.49662 
 Bq                   -1.32653  -1.93878   1.41522 
 Bq                   -1.12245  -1.93878   1.3332 
 Bq                   -0.91837  -1.93878   1.25055 
 Bq                   -0.71429  -1.93878   1.16727 
 Bq                   -0.5102   -1.93878   1.08337 
 Bq                   -0.30612  -1.93878   0.99885 
 Bq                   -0.10204  -1.93878   0.9137 
 Bq                    0.10204  -1.93878   0.82793 
 Bq                    0.30612  -1.93878   0.74154 
 Bq                    0.5102   -1.93878   0.65452 
 Bq                    0.71429  -1.93878   0.56688 
 Bq                    0.91837  -1.93878   0.47861 
 Bq                    1.12245  -1.93878   0.38972 
 Bq                    1.32653  -1.93878   0.3002 
 Bq                    1.53061  -1.93878   0.21006 
 Bq                    1.73469  -1.93878   0.1193 
 Bq                    1.93878  -1.93878   0.02791 
 Bq                    2.14286  -1.93878  -0.0641 
 Bq                    2.34694  -1.93878  -0.15674 
 Bq                    2.55102  -1.93878  -0.25 
 Bq                    2.7551   -1.93878  -0.34388 
 Bq                    2.95918  -1.93878  -0.43839 
 Bq                    3.16327  -1.93878  -0.53353 
 Bq                    3.36735  -1.93878  -0.62928 
 Bq                    3.57143  -1.93878  -0.72566 
 Bq                    3.77551  -1.93878  -0.82267 
 Bq                    3.97959  -1.93878  -0.9203 
 Bq                    4.18367  -1.93878  -1.01855 
 Bq                    4.38776  -1.93878  -1.11743 
 Bq                    4.59184  -1.93878  -1.21693 
 Bq                    4.79592  -1.93878  -1.31706 
 Bq                    5.       -1.93878  -1.41781 
 Bq                   -5.       -1.73469   2.51673 
 Bq                   -4.79592  -1.73469   2.45739 
 Bq                   -4.59184  -1.73469   2.39742 
 Bq                   -4.38776  -1.73469   2.33683 
 Bq                   -4.18367  -1.73469   2.27562 
 Bq                   -3.97959  -1.73469   2.21378 
 Bq                   -3.77551  -1.73469   2.15132 
 Bq                   -3.57143  -1.73469   2.08823 
 Bq                   -3.36735  -1.73469   2.02452 
 Bq                   -3.16327  -1.73469   1.96018 
 Bq                   -2.95918  -1.73469   1.89523 
 Bq                   -2.7551   -1.73469   1.82964 
 Bq                   -2.55102  -1.73469   1.76344 
 Bq                   -2.34694  -1.73469   1.6966 
 Bq                   -2.14286  -1.73469   1.62915 
 Bq                   -1.93878  -1.73469   1.56107 
 Bq                   -1.73469  -1.73469   1.49237 
 Bq                   -1.53061  -1.73469   1.42304 
 Bq                   -1.32653  -1.73469   1.35309 
 Bq                   -1.12245  -1.73469   1.28251 
 Bq                   -0.91837  -1.73469   1.21131 
 Bq                   -0.71429  -1.73469   1.13949 
 Bq                   -0.5102   -1.73469   1.06704 
 Bq                   -0.30612  -1.73469   0.99396 
 Bq                   -0.10204  -1.73469   0.92027 
 Bq                    0.10204  -1.73469   0.84595 
 Bq                    0.30612  -1.73469   0.771 
 Bq                    0.5102   -1.73469   0.69543 
 Bq                    0.71429  -1.73469   0.61924 
 Bq                    0.91837  -1.73469   0.54242 
 Bq                    1.12245  -1.73469   0.46498 
 Bq                    1.32653  -1.73469   0.38691 
 Bq                    1.53061  -1.73469   0.30822 
 Bq                    1.73469  -1.73469   0.22891 
 Bq                    1.93878  -1.73469   0.14897 
 Bq                    2.14286  -1.73469   0.06841 
 Bq                    2.34694  -1.73469  -0.01278 
 Bq                    2.55102  -1.73469  -0.09459 
 Bq                    2.7551   -1.73469  -0.17702 
 Bq                    2.95918  -1.73469  -0.26008 
 Bq                    3.16327  -1.73469  -0.34377 
 Bq                    3.36735  -1.73469  -0.42807 
 Bq                    3.57143  -1.73469  -0.51301 
 Bq                    3.77551  -1.73469  -0.59856 
 Bq                    3.97959  -1.73469  -0.68474 
 Bq                    4.18367  -1.73469  -0.77154 
 Bq                    4.38776  -1.73469  -0.85897 
 Bq                    4.59184  -1.73469  -0.94702 
 Bq                    4.79592  -1.73469  -1.0357 
 Bq                    5.       -1.73469  -1.125 
 Bq                   -5.       -1.53061   2.24908 
 Bq                   -4.79592  -1.53061   2.20119 
 Bq                   -4.59184  -1.53061   2.15267 
 Bq                   -4.38776  -1.53061   2.10353 
 Bq                   -4.18367  -1.53061   2.05377 
 Bq                   -3.97959  -1.53061   2.00338 
 Bq                   -3.77551  -1.53061   1.95237 
 Bq                   -3.57143  -1.53061   1.90073 
 Bq                   -3.36735  -1.53061   1.84847 
 Bq                   -3.16327  -1.53061   1.79559 
 Bq                   -2.95918  -1.53061   1.74208 
 Bq                   -2.7551   -1.53061   1.68794 
 Bq                   -2.55102  -1.53061   1.63319 
 Bq                   -2.34694  -1.53061   1.5778 
 Bq                   -2.14286  -1.53061   1.5218 
 Bq                   -1.93878  -1.53061   1.46517 
 Bq                   -1.73469  -1.53061   1.40791 
 Bq                   -1.53061  -1.53061   1.35004 
 Bq                   -1.32653  -1.53061   1.29153 
 Bq                   -1.12245  -1.53061   1.23241 
 Bq                   -0.91837  -1.53061   1.17266 
 Bq                   -0.71429  -1.53061   1.11228 
 Bq                   -0.5102   -1.53061   1.05128 
 Bq                   -0.30612  -1.53061   0.98966 
 Bq                   -0.10204  -1.53061   0.92741 
 Bq                    0.10204  -1.53061   0.86454 
 Bq                    0.30612  -1.53061   0.80105 
 Bq                    0.5102   -1.53061   0.73693 
 Bq                    0.71429  -1.53061   0.67218 
 Bq                    0.91837  -1.53061   0.60682 
 Bq                    1.12245  -1.53061   0.54082 
 Bq                    1.32653  -1.53061   0.47421 
 Bq                    1.53061  -1.53061   0.40697 
 Bq                    1.73469  -1.53061   0.3391 
 Bq                    1.93878  -1.53061   0.27061 
 Bq                    2.14286  -1.53061   0.2015 
 Bq                    2.34694  -1.53061   0.13177 
 Bq                    2.55102  -1.53061   0.0614 
 Bq                    2.7551   -1.53061  -0.00958 
 Bq                    2.95918  -1.53061  -0.08119 
 Bq                    3.16327  -1.53061  -0.15342 
 Bq                    3.36735  -1.53061  -0.22628 
 Bq                    3.57143  -1.53061  -0.29976 
 Bq                    3.77551  -1.53061  -0.37387 
 Bq                    3.97959  -1.53061  -0.4486 
 Bq                    4.18367  -1.53061  -0.52395 
 Bq                    4.38776  -1.53061  -0.59993 
 Bq                    4.59184  -1.53061  -0.67653 
 Bq                    4.79592  -1.53061  -0.75376 
 Bq                    5.       -1.53061  -0.83161 
 Bq                   -5.       -1.32653   1.98202 
 Bq                   -4.79592  -1.32653   1.94557 
 Bq                   -4.59184  -1.32653   1.90851 
 Bq                   -4.38776  -1.32653   1.87082 
 Bq                   -4.18367  -1.32653   1.8325 
 Bq                   -3.97959  -1.32653   1.79357 
 Bq                   -3.77551  -1.32653   1.754 
 Bq                   -3.57143  -1.32653   1.71382 
 Bq                   -3.36735  -1.32653   1.673 
 Bq                   -3.16327  -1.32653   1.63157 
 Bq                   -2.95918  -1.32653   1.58951 
 Bq                   -2.7551   -1.32653   1.54683 
 Bq                   -2.55102  -1.32653   1.50352 
 Bq                   -2.34694  -1.32653   1.45959 
 Bq                   -2.14286  -1.32653   1.41503 
 Bq                   -1.93878  -1.32653   1.36985 
 Bq                   -1.73469  -1.32653   1.32405 
 Bq                   -1.53061  -1.32653   1.27762 
 Bq                   -1.32653  -1.32653   1.23057 
 Bq                   -1.12245  -1.32653   1.18289 
 Bq                   -0.91837  -1.32653   1.13459 
 Bq                   -0.71429  -1.32653   1.08566 
 Bq                   -0.5102   -1.32653   1.03612 
 Bq                   -0.30612  -1.32653   0.98594 
 Bq                   -0.10204  -1.32653   0.93514 
 Bq                    0.10204  -1.32653   0.88372 
 Bq                    0.30612  -1.32653   0.83168 
 Bq                    0.5102   -1.32653   0.77901 
 Bq                    0.71429  -1.32653   0.72571 
 Bq                    0.91837  -1.32653   0.6718 
 Bq                    1.12245  -1.32653   0.61725 
 Bq                    1.32653  -1.32653   0.56209 
 Bq                    1.53061  -1.32653   0.5063 
 Bq                    1.73469  -1.32653   0.44988 
 Bq                    1.93878  -1.32653   0.39284 
 Bq                    2.14286  -1.32653   0.33518 
 Bq                    2.34694  -1.32653   0.27689 
 Bq                    2.55102  -1.32653   0.21798 
 Bq                    2.7551   -1.32653   0.15845 
 Bq                    2.95918  -1.32653   0.09829 
 Bq                    3.16327  -1.32653   0.0375 
 Bq                    3.36735  -1.32653  -0.0239 
 Bq                    3.57143  -1.32653  -0.08594 
 Bq                    3.77551  -1.32653  -0.14859 
 Bq                    3.97959  -1.32653  -0.21187 
 Bq                    4.18367  -1.32653  -0.27578 
 Bq                    4.38776  -1.32653  -0.34031 
 Bq                    4.59184  -1.32653  -0.40546 
 Bq                    4.79592  -1.32653  -0.47123 
 Bq                    5.       -1.32653  -0.53764 
 Bq                   -5.       -1.12245   1.71554 
 Bq                   -4.79592  -1.12245   1.69055 
 Bq                   -4.59184  -1.12245   1.66493 
 Bq                   -4.38776  -1.12245   1.63869 
 Bq                   -4.18367  -1.12245   1.61182 
 Bq                   -3.97959  -1.12245   1.58433 
 Bq                   -3.77551  -1.12245   1.55622 
 Bq                   -3.57143  -1.12245   1.52748 
 Bq                   -3.36735  -1.12245   1.49812 
 Bq                   -3.16327  -1.12245   1.46814 
 Bq                   -2.95918  -1.12245   1.43753 
 Bq                   -2.7551   -1.12245   1.40629 
 Bq                   -2.55102  -1.12245   1.37444 
 Bq                   -2.34694  -1.12245   1.34196 
 Bq                   -2.14286  -1.12245   1.30885 
 Bq                   -1.93878  -1.12245   1.27512 
 Bq                   -1.73469  -1.12245   1.24076 
 Bq                   -1.53061  -1.12245   1.20579 
 Bq                   -1.32653  -1.12245   1.17018 
 Bq                   -1.12245  -1.12245   1.13396 
 Bq                   -0.91837  -1.12245   1.09711 
 Bq                   -0.71429  -1.12245   1.05963 
 Bq                   -0.5102   -1.12245   1.02153 
 Bq                   -0.30612  -1.12245   0.98281 
 Bq                   -0.10204  -1.12245   0.94346 
 Bq                    0.10204  -1.12245   0.90349 
 Bq                    0.30612  -1.12245   0.86289 
 Bq                    0.5102   -1.12245   0.82167 
 Bq                    0.71429  -1.12245   0.77983 
 Bq                    0.91837  -1.12245   0.73736 
 Bq                    1.12245  -1.12245   0.69427 
 Bq                    1.32653  -1.12245   0.65055 
 Bq                    1.53061  -1.12245   0.60621 
 Bq                    1.73469  -1.12245   0.56125 
 Bq                    1.93878  -1.12245   0.51566 
 Bq                    2.14286  -1.12245   0.46944 
 Bq                    2.34694  -1.12245   0.42261 
 Bq                    2.55102  -1.12245   0.37514 
 Bq                    2.7551   -1.12245   0.32706 
 Bq                    2.95918  -1.12245   0.27835 
 Bq                    3.16327  -1.12245   0.22901 
 Bq                    3.36735  -1.12245   0.17906 
 Bq                    3.57143  -1.12245   0.12847 
 Bq                    3.77551  -1.12245   0.07727 
 Bq                    3.97959  -1.12245   0.02544 
 Bq                    4.18367  -1.12245  -0.02702 
 Bq                    4.38776  -1.12245  -0.0801 
 Bq                    4.59184  -1.12245  -0.1338 
 Bq                    4.79592  -1.12245  -0.18813 
 Bq                    5.       -1.12245  -0.24308 
 Bq                   -5.       -0.91837   1.44964 
 Bq                   -4.79592  -0.91837   1.4361 
 Bq                   -4.59184  -0.91837   1.42193 
 Bq                   -4.38776  -0.91837   1.40714 
 Bq                   -4.18367  -0.91837   1.39173 
 Bq                   -3.97959  -0.91837   1.37569 
 Bq                   -3.77551  -0.91837   1.35903 
 Bq                   -3.57143  -0.91837   1.34174 
 Bq                   -3.36735  -0.91837   1.32383 
 Bq                   -3.16327  -0.91837   1.30529 
 Bq                   -2.95918  -0.91837   1.28613 
 Bq                   -2.7551   -0.91837   1.26635 
 Bq                   -2.55102  -0.91837   1.24594 
 Bq                   -2.34694  -0.91837   1.22491 
 Bq                   -2.14286  -0.91837   1.20325 
 Bq                   -1.93878  -0.91837   1.18097 
 Bq                   -1.73469  -0.91837   1.15807 
 Bq                   -1.53061  -0.91837   1.13454 
 Bq                   -1.32653  -0.91837   1.11038 
 Bq                   -1.12245  -0.91837   1.08561 
 Bq                   -0.91837  -0.91837   1.06021 
 Bq                   -0.71429  -0.91837   1.03418 
 Bq                   -0.5102   -0.91837   1.00753 
 Bq                   -0.30612  -0.91837   0.98026 
 Bq                   -0.10204  -0.91837   0.95236 
 Bq                    0.10204  -0.91837   0.92384 
 Bq                    0.30612  -0.91837   0.89469 
 Bq                    0.5102   -0.91837   0.86492 
 Bq                    0.71429  -0.91837   0.83453 
 Bq                    0.91837  -0.91837   0.80351 
 Bq                    1.12245  -0.91837   0.77186 
 Bq                    1.32653  -0.91837   0.7396 
 Bq                    1.53061  -0.91837   0.70671 
 Bq                    1.73469  -0.91837   0.67319 
 Bq                    1.93878  -0.91837   0.63905 
 Bq                    2.14286  -0.91837   0.60429 
 Bq                    2.34694  -0.91837   0.5689 
 Bq                    2.55102  -0.91837   0.53289 
 Bq                    2.7551   -0.91837   0.49625 
 Bq                    2.95918  -0.91837   0.45899 
 Bq                    3.16327  -0.91837   0.42111 
 Bq                    3.36735  -0.91837   0.3826 
 Bq                    3.57143  -0.91837   0.34347 
 Bq                    3.77551  -0.91837   0.30371 
 Bq                    3.97959  -0.91837   0.26333 
 Bq                    4.18367  -0.91837   0.22233 
 Bq                    4.38776  -0.91837   0.1807 
 Bq                    4.59184  -0.91837   0.13845 
 Bq                    4.79592  -0.91837   0.09557 
 Bq                    5.       -0.91837   0.05207 
 Bq                   -5.       -0.71429   1.18433 
 Bq                   -4.79592  -0.71429   1.18224 
 Bq                   -4.59184  -0.71429   1.17952 
 Bq                   -4.38776  -0.71429   1.17618 
 Bq                   -4.18367  -0.71429   1.17222 
 Bq                   -3.97959  -0.71429   1.16763 
 Bq                   -3.77551  -0.71429   1.16241 
 Bq                   -3.57143  -0.71429   1.15658 
 Bq                   -3.36735  -0.71429   1.15011 
 Bq                   -3.16327  -0.71429   1.14303 
 Bq                   -2.95918  -0.71429   1.13532 
 Bq                   -2.7551   -0.71429   1.12698 
 Bq                   -2.55102  -0.71429   1.11803 
 Bq                   -2.34694  -0.71429   1.10844 
 Bq                   -2.14286  -0.71429   1.09824 
 Bq                   -1.93878  -0.71429   1.08741 
 Bq                   -1.73469  -0.71429   1.07595 
 Bq                   -1.53061  -0.71429   1.06387 
 Bq                   -1.32653  -0.71429   1.05117 
 Bq                   -1.12245  -0.71429   1.03784 
 Bq                   -0.91837  -0.71429   1.02389 
 Bq                   -0.71429  -0.71429   1.00931 
 Bq                   -0.5102   -0.71429   0.99411 
 Bq                   -0.30612  -0.71429   0.97829 
 Bq                   -0.10204  -0.71429   0.96184 
 Bq                    0.10204  -0.71429   0.94477 
 Bq                    0.30612  -0.71429   0.92707 
 Bq                    0.5102   -0.71429   0.90875 
 Bq                    0.71429  -0.71429   0.88981 
 Bq                    0.91837  -0.71429   0.87024 
 Bq                    1.12245  -0.71429   0.85005 
 Bq                    1.32653  -0.71429   0.82923 
 Bq                    1.53061  -0.71429   0.80779 
 Bq                    1.73469  -0.71429   0.78572 
 Bq                    1.93878  -0.71429   0.76303 
 Bq                    2.14286  -0.71429   0.73972 
 Bq                    2.34694  -0.71429   0.71578 
 Bq                    2.55102  -0.71429   0.69122 
 Bq                    2.7551   -0.71429   0.66603 
 Bq                    2.95918  -0.71429   0.64022 
 Bq                    3.16327  -0.71429   0.61379 
 Bq                    3.36735  -0.71429   0.58673 
 Bq                    3.57143  -0.71429   0.55905 
 Bq                    3.77551  -0.71429   0.53074 
 Bq                    3.97959  -0.71429   0.50181 
 Bq                    4.18367  -0.71429   0.47226 
 Bq                    4.38776  -0.71429   0.44208 
 Bq                    4.59184  -0.71429   0.41127 
 Bq                    4.79592  -0.71429   0.37985 
 Bq                    5.       -0.71429   0.34779 
 Bq                   -5.       -0.5102    0.9196 
 Bq                   -4.79592  -0.5102    0.92896 
 Bq                   -4.59184  -0.5102    0.93769 
 Bq                   -4.38776  -0.5102    0.9458 
 Bq                   -4.18367  -0.5102    0.95329 
 Bq                   -3.97959  -0.5102    0.96015 
 Bq                   -3.77551  -0.5102    0.96638 
 Bq                   -3.57143  -0.5102    0.972 
 Bq                   -3.36735  -0.5102    0.97698 
 Bq                   -3.16327  -0.5102    0.98135 
 Bq                   -2.95918  -0.5102    0.98509 
 Bq                   -2.7551   -0.5102    0.9882 
 Bq                   -2.55102  -0.5102    0.9907 
 Bq                   -2.34694  -0.5102    0.99256 
 Bq                   -2.14286  -0.5102    0.99381 
 Bq                   -1.93878  -0.5102    0.99442 
 Bq                   -1.73469  -0.5102    0.99442 
 Bq                   -1.53061  -0.5102    0.99379 
 Bq                   -1.32653  -0.5102    0.99254 
 Bq                   -1.12245  -0.5102    0.99066 
 Bq                   -0.91837  -0.5102    0.98816 
 Bq                   -0.71429  -0.5102    0.98503 
 Bq                   -0.5102   -0.5102    0.98128 
 Bq                   -0.30612  -0.5102    0.97691 
 Bq                   -0.10204  -0.5102    0.97191 
 Bq                    0.10204  -0.5102    0.96629 
 Bq                    0.30612  -0.5102    0.96004 
 Bq                    0.5102   -0.5102    0.95317 
 Bq                    0.71429  -0.5102    0.94567 
 Bq                    0.91837  -0.5102    0.93756 
 Bq                    1.12245  -0.5102    0.92881 
 Bq                    1.32653  -0.5102    0.91945 
 Bq                    1.53061  -0.5102    0.90945 
 Bq                    1.73469  -0.5102    0.89884 
 Bq                    1.93878  -0.5102    0.8876 
 Bq                    2.14286  -0.5102    0.87573 
 Bq                    2.34694  -0.5102    0.86325 
 Bq                    2.55102  -0.5102    0.85013 
 Bq                    2.7551   -0.5102    0.8364 
 Bq                    2.95918  -0.5102    0.82204 
 Bq                    3.16327  -0.5102    0.80705 
 Bq                    3.36735  -0.5102    0.79144 
 Bq                    3.57143  -0.5102    0.77521 
 Bq                    3.77551  -0.5102    0.75835 
 Bq                    3.97959  -0.5102    0.74087 
 Bq                    4.18367  -0.5102    0.72277 
 Bq                    4.38776  -0.5102    0.70404 
 Bq                    4.59184  -0.5102    0.68468 
 Bq                    4.79592  -0.5102    0.66471 
 Bq                    5.       -0.5102    0.64411 
 Bq                   -5.       -0.30612   0.65546 
 Bq                   -4.79592  -0.30612   0.67627 
 Bq                   -4.59184  -0.30612   0.69645 
 Bq                   -4.38776  -0.30612   0.71601 
 Bq                   -4.18367  -0.30612   0.73494 
 Bq                   -3.97959  -0.30612   0.75325 
 Bq                   -3.77551  -0.30612   0.77094 
 Bq                   -3.57143  -0.30612   0.788 
 Bq                   -3.36735  -0.30612   0.80444 
 Bq                   -3.16327  -0.30612   0.82025 
 Bq                   -2.95918  -0.30612   0.83544 
 Bq                   -2.7551   -0.30612   0.85001 
 Bq                   -2.55102  -0.30612   0.86395 
 Bq                   -2.34694  -0.30612   0.87727 
 Bq                   -2.14286  -0.30612   0.88996 
 Bq                   -1.93878  -0.30612   0.90203 
 Bq                   -1.73469  -0.30612   0.91347 
 Bq                   -1.53061  -0.30612   0.92429 
 Bq                   -1.32653  -0.30612   0.93449 
 Bq                   -1.12245  -0.30612   0.94406 
 Bq                   -0.91837  -0.30612   0.95301 
 Bq                   -0.71429  -0.30612   0.96133 
 Bq                   -0.5102   -0.30612   0.96903 
 Bq                   -0.30612  -0.30612   0.97611 
 Bq                   -0.10204  -0.30612   0.98256 
 Bq                    0.10204  -0.30612   0.98839 
 Bq                    0.30612  -0.30612   0.99359 
 Bq                    0.5102   -0.30612   0.99817 
 Bq                    0.71429  -0.30612   1.00213 
 Bq                    0.91837  -0.30612   1.00546 
 Bq                    1.12245  -0.30612   1.00816 
 Bq                    1.32653  -0.30612   1.01025 
 Bq                    1.53061  -0.30612   1.0117 
 Bq                    1.73469  -0.30612   1.01254 
 Bq                    1.93878  -0.30612   1.01275 
 Bq                    2.14286  -0.30612   1.01233 
 Bq                    2.34694  -0.30612   1.0113 
 Bq                    2.55102  -0.30612   1.00963 
 Bq                    2.7551   -0.30612   1.00735 
 Bq                    2.95918  -0.30612   1.00444 
 Bq                    3.16327  -0.30612   1.0009 
 Bq                    3.36735  -0.30612   0.99674 
 Bq                    3.57143  -0.30612   0.99196 
 Bq                    3.77551  -0.30612   0.98655 
 Bq                    3.97959  -0.30612   0.98052 
 Bq                    4.18367  -0.30612   0.97386 
 Bq                    4.38776  -0.30612   0.96658 
 Bq                    4.59184  -0.30612   0.95868 
 Bq                    4.79592  -0.30612   0.95015 
 Bq                    5.       -0.30612   0.941 
 Bq                   -5.       -0.10204   0.3919 
 Bq                   -4.79592  -0.10204   0.42416 
 Bq                   -4.59184  -0.10204   0.45579 
 Bq                   -4.38776  -0.10204   0.4868 
 Bq                   -4.18367  -0.10204   0.51718 
 Bq                   -3.97959  -0.10204   0.54694 
 Bq                   -3.77551  -0.10204   0.57608 
 Bq                   -3.57143  -0.10204   0.60459 
 Bq                   -3.36735  -0.10204   0.63248 
 Bq                   -3.16327  -0.10204   0.65974 
 Bq                   -2.95918  -0.10204   0.68638 
 Bq                   -2.7551   -0.10204   0.7124 
 Bq                   -2.55102  -0.10204   0.73779 
 Bq                   -2.34694  -0.10204   0.76256 
 Bq                   -2.14286  -0.10204   0.7867 
 Bq                   -1.93878  -0.10204   0.81022 
 Bq                   -1.73469  -0.10204   0.83311 
 Bq                   -1.53061  -0.10204   0.85538 
 Bq                   -1.32653  -0.10204   0.87703 
 Bq                   -1.12245  -0.10204   0.89805 
 Bq                   -0.91837  -0.10204   0.91845 
 Bq                   -0.71429  -0.10204   0.93822 
 Bq                   -0.5102   -0.10204   0.95737 
 Bq                   -0.30612  -0.10204   0.9759 
 Bq                   -0.10204  -0.10204   0.9938 
 Bq                    0.10204  -0.10204   1.01107 
 Bq                    0.30612  -0.10204   1.02773 
 Bq                    0.5102   -0.10204   1.04376 
 Bq                    0.71429  -0.10204   1.05916 
 Bq                    0.91837  -0.10204   1.07394 
 Bq                    1.12245  -0.10204   1.0881 
 Bq                    1.32653  -0.10204   1.10163 
 Bq                    1.53061  -0.10204   1.11454 
 Bq                    1.73469  -0.10204   1.12682 
 Bq                    1.93878  -0.10204   1.13848 
 Bq                    2.14286  -0.10204   1.14952 
 Bq                    2.34694  -0.10204   1.15993 
 Bq                    2.55102  -0.10204   1.16972 
 Bq                    2.7551   -0.10204   1.17888 
 Bq                    2.95918  -0.10204   1.18742 
 Bq                    3.16327  -0.10204   1.19533 
 Bq                    3.36735  -0.10204   1.20262 
 Bq                    3.57143  -0.10204   1.20929 
 Bq                    3.77551  -0.10204   1.21533 
 Bq                    3.97959  -0.10204   1.22075 
 Bq                    4.18367  -0.10204   1.22555 
 Bq                    4.38776  -0.10204   1.22972 
 Bq                    4.59184  -0.10204   1.23326 
 Bq                    4.79592  -0.10204   1.23618 
 Bq                    5.       -0.10204   1.23848 
 Bq                   -5.        0.10204   0.12893 
 Bq                   -4.79592   0.10204   0.17263 
 Bq                   -4.59184   0.10204   0.21572 
 Bq                   -4.38776   0.10204   0.25817 
 Bq                   -4.18367   0.10204   0.30001 
 Bq                   -3.97959   0.10204   0.34122 
 Bq                   -3.77551   0.10204   0.3818 
 Bq                   -3.57143   0.10204   0.42177 
 Bq                   -3.36735   0.10204   0.4611 
 Bq                   -3.16327   0.10204   0.49982 
 Bq                   -2.95918   0.10204   0.53791 
 Bq                   -2.7551    0.10204   0.57537 
 Bq                   -2.55102   0.10204   0.61221 
 Bq                   -2.34694   0.10204   0.64843 
 Bq                   -2.14286   0.10204   0.68402 
 Bq                   -1.93878   0.10204   0.71899 
 Bq                   -1.73469   0.10204   0.75333 
 Bq                   -1.53061   0.10204   0.78705 
 Bq                   -1.32653   0.10204   0.82015 
 Bq                   -1.12245   0.10204   0.85262 
 Bq                   -0.91837   0.10204   0.88447 
 Bq                   -0.71429   0.10204   0.91569 
 Bq                   -0.5102    0.10204   0.94629 
 Bq                   -0.30612   0.10204   0.97627 
 Bq                   -0.10204   0.10204   1.00562 
 Bq                    0.10204   0.10204   1.03434 
 Bq                    0.30612   0.10204   1.06245 
 Bq                    0.5102    0.10204   1.08992 
 Bq                    0.71429   0.10204   1.11678 
 Bq                    0.91837   0.10204   1.14301 
 Bq                    1.12245   0.10204   1.16862 
 Bq                    1.32653   0.10204   1.1936 
 Bq                    1.53061   0.10204   1.21796 
 Bq                    1.73469   0.10204   1.24169 
 Bq                    1.93878   0.10204   1.2648 
 Bq                    2.14286   0.10204   1.28728 
 Bq                    2.34694   0.10204   1.30915 
 Bq                    2.55102   0.10204   1.33038 
 Bq                    2.7551    0.10204   1.351 
 Bq                    2.95918   0.10204   1.37098 
 Bq                    3.16327   0.10204   1.39035 
 Bq                    3.36735   0.10204   1.40909 
 Bq                    3.57143   0.10204   1.42721 
 Bq                    3.77551   0.10204   1.4447 
 Bq                    3.97959   0.10204   1.46157 
 Bq                    4.18367   0.10204   1.47781 
 Bq                    4.38776   0.10204   1.49343 
 Bq                    4.59184   0.10204   1.50843 
 Bq                    4.79592   0.10204   1.5228 
 Bq                    5.        0.10204   1.53654 
 Bq                   -5.        0.30612  -0.13346 
 Bq                   -4.79592   0.30612  -0.07831 
 Bq                   -4.59184   0.30612  -0.02377 
 Bq                   -4.38776   0.30612   0.03013 
 Bq                   -4.18367   0.30612   0.08342 
 Bq                   -3.97959   0.30612   0.13608 
 Bq                   -3.77551   0.30612   0.18811 
 Bq                   -3.57143   0.30612   0.23952 
 Bq                   -3.36735   0.30612   0.29031 
 Bq                   -3.16327   0.30612   0.34047 
 Bq                   -2.95918   0.30612   0.39001 
 Bq                   -2.7551    0.30612   0.43893 
 Bq                   -2.55102   0.30612   0.48722 
 Bq                   -2.34694   0.30612   0.53488 
 Bq                   -2.14286   0.30612   0.58193 
 Bq                   -1.93878   0.30612   0.62834 
 Bq                   -1.73469   0.30612   0.67414 
 Bq                   -1.53061   0.30612   0.71931 
 Bq                   -1.32653   0.30612   0.76385 
 Bq                   -1.12245   0.30612   0.80777 
 Bq                   -0.91837   0.30612   0.85107 
 Bq                   -0.71429   0.30612   0.89375 
 Bq                   -0.5102    0.30612   0.93579 
 Bq                   -0.30612   0.30612   0.97722 
 Bq                   -0.10204   0.30612   1.01802 
 Bq                    0.10204   0.30612   1.0582 
 Bq                    0.30612   0.30612   1.09775 
 Bq                    0.5102    0.30612   1.13668 
 Bq                    0.71429   0.30612   1.17498 
 Bq                    0.91837   0.30612   1.21266 
 Bq                    1.12245   0.30612   1.24972 
 Bq                    1.32653   0.30612   1.28615 
 Bq                    1.53061   0.30612   1.32196 
 Bq                    1.73469   0.30612   1.35714 
 Bq                    1.93878   0.30612   1.3917 
 Bq                    2.14286   0.30612   1.42563 
 Bq                    2.34694   0.30612   1.45895 
 Bq                    2.55102   0.30612   1.49163 
 Bq                    2.7551    0.30612   1.5237 
 Bq                    2.95918   0.30612   1.55513 
 Bq                    3.16327   0.30612   1.58595 
 Bq                    3.36735   0.30612   1.61614 
 Bq                    3.57143   0.30612   1.64571 
 Bq                    3.77551   0.30612   1.67465 
 Bq                    3.97959   0.30612   1.70296 
 Bq                    4.18367   0.30612   1.73066 
 Bq                    4.38776   0.30612   1.75773 
 Bq                    4.59184   0.30612   1.78417 
 Bq                    4.79592   0.30612   1.80999 
 Bq                    5.        0.30612   1.83519 
 Bq                   -5.        0.5102   -0.39527 
 Bq                   -4.79592   0.5102   -0.32866 
 Bq                   -4.59184   0.5102   -0.26268 
 Bq                   -4.38776   0.5102   -0.19732 
 Bq                   -4.18367   0.5102   -0.13259 
 Bq                   -3.97959   0.5102   -0.06848 
 Bq                   -3.77551   0.5102   -0.005 
 Bq                   -3.57143   0.5102    0.05787 
 Bq                   -3.36735   0.5102    0.1201 
 Bq                   -3.16327   0.5102    0.18172 
 Bq                   -2.95918   0.5102    0.2427 
 Bq                   -2.7551    0.5102    0.30307 
 Bq                   -2.55102   0.5102    0.36281 
 Bq                   -2.34694   0.5102    0.42192 
 Bq                   -2.14286   0.5102    0.48042 
 Bq                   -1.93878   0.5102    0.53828 
 Bq                   -1.73469   0.5102    0.59553 
 Bq                   -1.53061   0.5102    0.65215 
 Bq                   -1.32653   0.5102    0.70814 
 Bq                   -1.12245   0.5102    0.76351 
 Bq                   -0.91837   0.5102    0.81826 
 Bq                   -0.71429   0.5102    0.87238 
 Bq                   -0.5102    0.5102    0.92588 
 Bq                   -0.30612   0.5102    0.97876 
 Bq                   -0.10204   0.5102    1.03101 
 Bq                    0.10204   0.5102    1.08263 
 Bq                    0.30612   0.5102    1.13364 
 Bq                    0.5102    0.5102    1.18401 
 Bq                    0.71429   0.5102    1.23377 
 Bq                    0.91837   0.5102    1.2829 
 Bq                    1.12245   0.5102    1.3314 
 Bq                    1.32653   0.5102    1.37929 
 Bq                    1.53061   0.5102    1.42654 
 Bq                    1.73469   0.5102    1.47318 
 Bq                    1.93878   0.5102    1.51919 
 Bq                    2.14286   0.5102    1.56457 
 Bq                    2.34694   0.5102    1.60933 
 Bq                    2.55102   0.5102    1.65347 
 Bq                    2.7551    0.5102    1.69698 
 Bq                    2.95918   0.5102    1.73987 
 Bq                    3.16327   0.5102    1.78213 
 Bq                    3.36735   0.5102    1.82377 
 Bq                    3.57143   0.5102    1.86479 
 Bq                    3.77551   0.5102    1.90518 
 Bq                    3.97959   0.5102    1.94495 
 Bq                    4.18367   0.5102    1.98409 
 Bq                    4.38776   0.5102    2.02261 
 Bq                    4.59184   0.5102    2.06051 
 Bq                    4.79592   0.5102    2.09778 
 Bq                    5.        0.5102    2.13442 
 Bq                   -5.        0.71429  -0.65649 
 Bq                   -4.79592   0.71429  -0.57844 
 Bq                   -4.59184   0.71429  -0.501 
 Bq                   -4.38776   0.71429  -0.4242 
 Bq                   -4.18367   0.71429  -0.34801 
 Bq                   -3.97959   0.71429  -0.27245 
 Bq                   -3.77551   0.71429  -0.19752 
 Bq                   -3.57143   0.71429  -0.12321 
 Bq                   -3.36735   0.71429  -0.04952 
 Bq                   -3.16327   0.71429   0.02354 
 Bq                   -2.95918   0.71429   0.09598 
 Bq                   -2.7551    0.71429   0.16779 
 Bq                   -2.55102   0.71429   0.23898 
 Bq                   -2.34694   0.71429   0.30955 
 Bq                   -2.14286   0.71429   0.37949 
 Bq                   -1.93878   0.71429   0.44881 
 Bq                   -1.73469   0.71429   0.5175 
 Bq                   -1.53061   0.71429   0.58557 
 Bq                   -1.32653   0.71429   0.65302 
 Bq                   -1.12245   0.71429   0.71984 
 Bq                   -0.91837   0.71429   0.78603 
 Bq                   -0.71429   0.71429   0.85161 
 Bq                   -0.5102    0.71429   0.91656 
 Bq                   -0.30612   0.71429   0.98088 
 Bq                   -0.10204   0.71429   1.04458 
 Bq                    0.10204   0.71429   1.10766 
 Bq                    0.30612   0.71429   1.17011 
 Bq                    0.5102    0.71429   1.23194 
[...]
 18367,4.71714247\Bq,0,3.97959184,2.95918367,4.89430724\Bq,0,4.18367347
 ,2.95918367,5.07084787\Bq,0,4.3877551,2.95918367,5.24676435\Bq,0,4.591
 83673,2.95918367,5.42205669\Bq,0,4.79591837,2.95918367,5.59672488\Bq,0
 ,5.,2.95918367,5.77076893\Bq,0,-5.,3.16326531,-3.74559648\Bq,0,-4.7959
 1837,3.16326531,-3.53014372\Bq,0,-4.59183673,3.16326531,-3.31531511\Bq
 ,0,-4.3877551,3.16326531,-3.10111064\Bq,0,-4.18367347,3.16326531,-2.88
 753032\Bq,0,-3.97959184,3.16326531,-2.67457414\Bq,0,-3.7755102,3.16326
 531,-2.46224211\Bq,0,-3.57142857,3.16326531,-2.25053422\Bq,0,-3.367346
 94,3.16326531,-2.03945047\Bq,0,-3.16326531,3.16326531,-1.82899088\Bq,0
 ,-2.95918367,3.16326531,-1.61915542\Bq,0,-2.75510204,3.16326531,-1.409
 94411\Bq,0,-2.55102041,3.16326531,-1.20135695\Bq,0,-2.34693878,3.16326
 531,-0.99339393\Bq,0,-2.14285714,3.16326531,-0.78605505\Bq,0,-1.938775
 51,3.16326531,-0.57934032\Bq,0,-1.73469388,3.16326531,-0.37324973\Bq,0
 ,-1.53061224,3.16326531,-0.16778329\Bq,0,-1.32653061,3.16326531,0.0370
 59\Bq,0,-1.12244898,3.16326531,0.24127716\Bq,0,-0.91836735,3.16326531,
 0.44487116\Bq,0,-0.71428571,3.16326531,0.64784102\Bq,0,-0.51020408,3.1
 6326531,0.85018674\Bq,0,-0.30612245,3.16326531,1.05190832\Bq,0,-0.1020
 4082,3.16326531,1.25300574\Bq,0,0.10204082,3.16326531,1.45347903\Bq,0,
 0.30612245,3.16326531,1.65332816\Bq,0,0.51020408,3.16326531,1.85255316
 \Bq,0,0.71428571,3.16326531,2.05115401\Bq,0,0.91836735,3.16326531,2.24
 913071\Bq,0,1.12244898,3.16326531,2.44648327\Bq,0,1.32653061,3.1632653
 1,2.64321169\Bq,0,1.53061224,3.16326531,2.83931596\Bq,0,1.73469388,3.1
 6326531,3.03479608\Bq,0,1.93877551,3.16326531,3.22965206\Bq,0,2.142857
 14,3.16326531,3.4238839\Bq,0,2.34693878,3.16326531,3.61749159\Bq,0,2.5
 5102041,3.16326531,3.81047514\Bq,0,2.75510204,3.16326531,4.00283454\Bq
 ,0,2.95918367,3.16326531,4.19456979\Bq,0,3.16326531,3.16326531,4.38568
 091\Bq,0,3.36734694,3.16326531,4.57616787\Bq,0,3.57142857,3.16326531,4
 .7660307\Bq,0,3.7755102,3.16326531,4.95526937\Bq,0,3.97959184,3.163265
 31,5.14388391\Bq,0,4.18367347,3.16326531,5.3318743\Bq,0,4.3877551,3.16
 326531,5.51924054\Bq,0,4.59183673,3.16326531,5.70598264\Bq,0,4.7959183
 7,3.16326531,5.89210059\Bq,0,5.,3.16326531,6.0775944\Bq,0,-5.,3.367346
 94,-3.99922523\Bq,0,-4.79591837,3.36734694,-3.77232271\Bq,0,-4.5918367
 3,3.36734694,-3.54604433\Bq,0,-4.3877551,3.36734694,-3.3203901\Bq,0,-4
 .18367347,3.36734694,-3.09536002\Bq,0,-3.97959184,3.36734694,-2.870954
 08\Bq,0,-3.7755102,3.36734694,-2.64717228\Bq,0,-3.57142857,3.36734694,
 -2.42401463\Bq,0,-3.36734694,3.36734694,-2.20148113\Bq,0,-3.16326531,3
 .36734694,-1.97957176\Bq,0,-2.95918367,3.36734694,-1.75828655\Bq,0,-2.
 75510204,3.36734694,-1.53762548\Bq,0,-2.55102041,3.36734694,-1.3175885
 5\Bq,0,-2.34693878,3.36734694,-1.09817577\Bq,0,-2.14285714,3.36734694,
 -0.87938713\Bq,0,-1.93877551,3.36734694,-0.66122264\Bq,0,-1.73469388,3
 .36734694,-0.44368229\Bq,0,-1.53061224,3.36734694,-0.22676609\Bq,0,-1.
 32653061,3.36734694,-0.01047403\Bq,0,-1.12244898,3.36734694,0.20519389
 \Bq,0,-0.91836735,3.36734694,0.42023765\Bq,0,-0.71428571,3.36734694,0.
 63465728\Bq,0,-0.51020408,3.36734694,0.84845276\Bq,0,-0.30612245,3.367
 34694,1.06162409\Bq,0,-0.10204082,3.36734694,1.27417128\Bq,0,0.1020408
 2,3.36734694,1.48609433\Bq,0,0.30612245,3.36734694,1.69739323\Bq,0,0.5
 1020408,3.36734694,1.90806798\Bq,0,0.71428571,3.36734694,2.1181186\Bq,
 0,0.91836735,3.36734694,2.32754506\Bq,0,1.12244898,3.36734694,2.536347
 38\Bq,0,1.32653061,3.36734694,2.74452556\Bq,0,1.53061224,3.36734694,2.
 95207959\Bq,0,1.73469388,3.36734694,3.15900948\Bq,0,1.93877551,3.36734
 694,3.36531522\Bq,0,2.14285714,3.36734694,3.57099682\Bq,0,2.34693878,3
 .36734694,3.77605427\Bq,0,2.55102041,3.36734694,3.98048758\Bq,0,2.7551
 0204,3.36734694,4.18429674\Bq,0,2.95918367,3.36734694,4.38748176\Bq,0,
 3.16326531,3.36734694,4.59004264\Bq,0,3.36734694,3.36734694,4.79197937
 \Bq,0,3.57142857,3.36734694,4.99329195\Bq,0,3.7755102,3.36734694,5.193
 98039\Bq,0,3.97959184,3.36734694,5.39404469\Bq,0,4.18367347,3.36734694
 ,5.59348484\Bq,0,4.3877551,3.36734694,5.79230084\Bq,0,4.59183673,3.367
 34694,5.9904927\Bq,0,4.79591837,3.36734694,6.18806042\Bq,0,5.,3.367346
 94,6.38500399\Bq,0,-5.,3.57142857,-4.25226986\Bq,0,-4.79591837,3.57142
 857,-4.01391758\Bq,0,-4.59183673,3.57142857,-3.77618944\Bq,0,-4.387755
 1,3.57142857,-3.53908545\Bq,0,-4.18367347,3.57142857,-3.3026056\Bq,0,-
 3.97959184,3.57142857,-3.0667499\Bq,0,-3.7755102,3.57142857,-2.8315183
 4\Bq,0,-3.57142857,3.57142857,-2.59691093\Bq,0,-3.36734694,3.57142857,
 -2.36292766\Bq,0,-3.16326531,3.57142857,-2.12956854\Bq,0,-2.95918367,3
 .57142857,-1.89683356\Bq,0,-2.75510204,3.57142857,-1.66472273\Bq,0,-2.
 55102041,3.57142857,-1.43323604\Bq,0,-2.34693878,3.57142857,-1.2023735
 \Bq,0,-2.14285714,3.57142857,-0.9721351\Bq,0,-1.93877551,3.57142857,-0
 .74252084\Bq,0,-1.73469388,3.57142857,-0.51353073\Bq,0,-1.53061224,3.5
 7142857,-0.28516477\Bq,0,-1.32653061,3.57142857,-0.05742295\Bq,0,-1.12
 244898,3.57142857,0.16969473\Bq,0,-0.91836735,3.57142857,0.39618826\Bq
 ,0,-0.71428571,3.57142857,0.62205765\Bq,0,-0.51020408,3.57142857,0.847
 30289\Bq,0,-0.30612245,3.57142857,1.07192399\Bq,0,-0.10204082,3.571428
 57,1.29592094\Bq,0,0.10204082,3.57142857,1.51929374\Bq,0,0.30612245,3.
 57142857,1.74204241\Bq,0,0.51020408,3.57142857,1.96416692\Bq,0,0.71428
 571,3.57142857,2.1856673\Bq,0,0.91836735,3.57142857,2.40654353\Bq,0,1.
 12244898,3.57142857,2.62679561\Bq,0,1.32653061,3.57142857,2.84642355\B
 q,0,1.53061224,3.57142857,3.06542734\Bq,0,1.73469388,3.57142857,3.2838
 0699\Bq,0,1.93877551,3.57142857,3.5015625\Bq,0,2.14285714,3.57142857,3
 .71869386\Bq,0,2.34693878,3.57142857,3.93520107\Bq,0,2.55102041,3.5714
 2857,4.15108414\Bq,0,2.75510204,3.57142857,4.36634307\Bq,0,2.95918367,
 3.57142857,4.58097785\Bq,0,3.16326531,3.57142857,4.79498848\Bq,0,3.367
 34694,3.57142857,5.00837497\Bq,0,3.57142857,3.57142857,5.22113732\Bq,0
 ,3.7755102,3.57142857,5.43327552\Bq,0,3.97959184,3.57142857,5.64478958
 \Bq,0,4.18367347,3.57142857,5.85567949\Bq,0,4.3877551,3.57142857,6.065
 94526\Bq,0,4.59183673,3.57142857,6.27558688\Bq,0,4.79591837,3.57142857
 ,6.48460436\Bq,0,5.,3.57142857,6.69299769\Bq,0,-5.,3.7755102,-4.504730
 38\Bq,0,-4.79591837,3.7755102,-4.25492834\Bq,0,-4.59183673,3.7755102,-
 4.00575044\Bq,0,-4.3877551,3.7755102,-3.75719668\Bq,0,-4.18367347,3.77
 55102,-3.50926707\Bq,0,-3.97959184,3.7755102,-3.26196161\Bq,0,-3.77551
 02,3.7755102,-3.01528029\Bq,0,-3.57142857,3.7755102,-2.76922312\Bq,0,-
 3.36734694,3.7755102,-2.52379009\Bq,0,-3.16326531,3.7755102,-2.2789812
 \Bq,0,-2.95918367,3.7755102,-2.03479646\Bq,0,-2.75510204,3.7755102,-1.
 79123587\Bq,0,-2.55102041,3.7755102,-1.54829941\Bq,0,-2.34693878,3.775
 5102,-1.30598711\Bq,0,-2.14285714,3.7755102,-1.06429895\Bq,0,-1.938775
 51,3.7755102,-0.82323493\Bq,0,-1.73469388,3.7755102,-0.58279506\Bq,0,-
 1.53061224,3.7755102,-0.34297933\Bq,0,-1.32653061,3.7755102,-0.1037877
 5\Bq,0,-1.12244898,3.7755102,0.13477969\Bq,0,-0.91836735,3.7755102,0.3
 7272298\Bq,0,-0.71428571,3.7755102,0.61004213\Bq,0,-0.51020408,3.77551
 02,0.84673713\Bq,0,-0.30612245,3.7755102,1.08280799\Bq,0,-0.10204082,3
 .7755102,1.31825471\Bq,0,0.10204082,3.7755102,1.55307727\Bq,0,0.306122
 45,3.7755102,1.7872757\Bq,0,0.51020408,3.7755102,2.02084998\Bq,0,0.714
 28571,3.7755102,2.25380011\Bq,0,0.91836735,3.7755102,2.4861261\Bq,0,1.
 12244898,3.7755102,2.71782795\Bq,0,1.32653061,3.7755102,2.94890565\Bq,
 0,1.53061224,3.7755102,3.17935921\Bq,0,1.73469388,3.7755102,3.40918862
 \Bq,0,1.93877551,3.7755102,3.63839388\Bq,0,2.14285714,3.7755102,3.8669
 75\Bq,0,2.34693878,3.7755102,4.09493198\Bq,0,2.55102041,3.7755102,4.32
 226481\Bq,0,2.75510204,3.7755102,4.5489735\Bq,0,2.95918367,3.7755102,4
 .77505804\Bq,0,3.16326531,3.7755102,5.00051844\Bq,0,3.36734694,3.77551
 02,5.2253547\Bq,0,3.57142857,3.7755102,5.4495668\Bq,0,3.7755102,3.7755
 102,5.67315477\Bq,0,3.97959184,3.7755102,5.89611859\Bq,0,4.18367347,3.
 7755102,6.11845826\Bq,0,4.3877551,3.7755102,6.34017379\Bq,0,4.59183673
 ,3.7755102,6.56126518\Bq,0,4.79591837,3.7755102,6.78173242\Bq,0,5.,3.7
 755102,7.00157551\Bq,0,-5.,3.97959184,-4.75660678\Bq,0,-4.79591837,3.9
 7959184,-4.49535498\Bq,0,-4.59183673,3.97959184,-4.23472732\Bq,0,-4.38
 77551,3.97959184,-3.9747238\Bq,0,-4.18367347,3.97959184,-3.71534443\Bq
 ,0,-3.97959184,3.97959184,-3.45658921\Bq,0,-3.7755102,3.97959184,-3.19
 845812\Bq,0,-3.57142857,3.97959184,-2.94095119\Bq,0,-3.36734694,3.9795
 9184,-2.6840684\Bq,0,-3.16326531,3.97959184,-2.42780975\Bq,0,-2.959183
 67,3.97959184,-2.17217525\Bq,0,-2.75510204,3.97959184,-1.91716489\Bq,0
 ,-2.55102041,3.97959184,-1.66277868\Bq,0,-2.34693878,3.97959184,-1.409
 01661\Bq,0,-2.14285714,3.97959184,-1.15587868\Bq,0,-1.93877551,3.97959
 184,-0.90336491\Bq,0,-1.73469388,3.97959184,-0.65147527\Bq,0,-1.530612
 24,3.97959184,-0.40020978\Bq,0,-1.32653061,3.97959184,-0.14956844\Bq,0
 ,-1.12244898,3.97959184,0.10044876\Bq,0,-0.91836735,3.97959184,0.34984
 182\Bq,0,-0.71428571,3.97959184,0.59861073\Bq,0,-0.51020408,3.97959184
 ,0.84675549\Bq,0,-0.30612245,3.97959184,1.09427611\Bq,0,-0.10204082,3.
 97959184,1.34117259\Bq,0,0.10204082,3.97959184,1.58744492\Bq,0,0.30612
 245,3.97959184,1.8330931\Bq,0,0.51020408,3.97959184,2.07811715\Bq,0,0.
 71428571,3.97959184,2.32251704\Bq,0,0.91836735,3.97959184,2.5662928\Bq
 ,0,1.12244898,3.97959184,2.8094444\Bq,0,1.32653061,3.97959184,3.051971
 87\Bq,0,1.53061224,3.97959184,3.29387518\Bq,0,1.73469388,3.97959184,3.
 53515436\Bq,0,1.93877551,3.97959184,3.77580938\Bq,0,2.14285714,3.97959
 184,4.01584027\Bq,0,2.34693878,3.97959184,4.25524701\Bq,0,2.55102041,3
 .97959184,4.4940296\Bq,0,2.75510204,3.97959184,4.73218805\Bq,0,2.95918
 367,3.97959184,4.96972236\Bq,0,3.16326531,3.97959184,5.20663252\Bq,0,3
 .36734694,3.97959184,5.44291853\Bq,0,3.57142857,3.97959184,5.6785804\B
 q,0,3.7755102,3.97959184,5.91361813\Bq,0,3.97959184,3.97959184,6.14803
 171\Bq,0,4.18367347,3.97959184,6.38182114\Bq,0,4.3877551,3.97959184,6.
 61498644\Bq,0,4.59183673,3.97959184,6.84752758\Bq,0,4.79591837,3.97959
 184,7.07944458\Bq,0,5.,3.97959184,7.31073744\Bq,0,-5.,4.18367347,-5.00
 789907\Bq,0,-4.79591837,4.18367347,-4.73519751\Bq,0,-4.59183673,4.1836
 7347,-4.46312008\Bq,0,-4.3877551,4.18367347,-4.19166681\Bq,0,-4.183673
 47,4.18367347,-3.92083767\Bq,0,-3.97959184,4.18367347,-3.65063269\Bq,0
 ,-3.7755102,4.18367347,-3.38105184\Bq,0,-3.57142857,4.18367347,-3.1120
 9514\Bq,0,-3.36734694,4.18367347,-2.84376259\Bq,0,-3.16326531,4.183673
 47,-2.57605418\Bq,0,-2.95918367,4.18367347,-2.30896992\Bq,0,-2.7551020
 4,4.18367347,-2.0425098\Bq,0,-2.55102041,4.18367347,-1.77667382\Bq,0,-
 2.34693878,4.18367347,-1.51146199\Bq,0,-2.14285714,4.18367347,-1.24687
 431\Bq,0,-1.93877551,4.18367347,-0.98291077\Bq,0,-1.73469388,4.1836734
 7,-0.71957137\Bq,0,-1.53061224,4.18367347,-0.45685612\Bq,0,-1.32653061
 ,4.18367347,-0.19476501\Bq,0,-1.12244898,4.18367347,0.06670195\Bq,0,-0
 .91836735,4.18367347,0.32754476\Bq,0,-0.71428571,4.18367347,0.58776344
 \Bq,0,-0.51020408,4.18367347,0.84735796\Bq,0,-0.30612245,4.18367347,1.
 10632835\Bq,0,-0.10204082,4.18367347,1.36467458\Bq,0,0.10204082,4.1836
 7347,1.62239668\Bq,0,0.30612245,4.18367347,1.87949462\Bq,0,0.51020408,
 4.18367347,2.13596843\Bq,0,0.71428571,4.18367347,2.39181809\Bq,0,0.918
 36735,4.18367347,2.6470436\Bq,0,1.12244898,4.18367347,2.90164497\Bq,0,
 1.32653061,4.18367347,3.1556222\Bq,0,1.53061224,4.18367347,3.40897528\
 Bq,0,1.73469388,4.18367347,3.66170421\Bq,0,1.93877551,4.18367347,3.913
 809\Bq,0,2.14285714,4.18367347,4.16528965\Bq,0,2.34693878,4.18367347,4
 .41614615\Bq,0,2.55102041,4.18367347,4.6663785\Bq,0,2.75510204,4.18367
 347,4.91598671\Bq,0,2.95918367,4.18367347,5.16497078\Bq,0,3.16326531,4
 .18367347,5.4133307\Bq,0,3.36734694,4.18367347,5.66106648\Bq,0,3.57142
 857,4.18367347,5.90817811\Bq,0,3.7755102,4.18367347,6.1546656\Bq,0,3.9
 7959184,4.18367347,6.40052894\Bq,0,4.18367347,4.18367347,6.64576814\Bq
 ,0,4.3877551,4.18367347,6.89038319\Bq,0,4.59183673,4.18367347,7.134374
 1\Bq,0,4.79591837,4.18367347,7.37774087\Bq,0,5.,4.18367347,7.62048349\
 Bq,0,-5.,4.3877551,-5.25860725\Bq,0,-4.79591837,4.3877551,-4.97445592\
 Bq,0,-4.59183673,4.3877551,-4.69092874\Bq,0,-4.3877551,4.3877551,-4.40
 80257\Bq,0,-4.18367347,4.3877551,-4.1257468\Bq,0,-3.97959184,4.3877551
 ,-3.84409205\Bq,0,-3.7755102,4.3877551,-3.56306145\Bq,0,-3.57142857,4.
 3877551,-3.28265499\Bq,0,-3.36734694,4.3877551,-3.00287267\Bq,0,-3.163
 26531,4.3877551,-2.7237145\Bq,0,-2.95918367,4.3877551,-2.44518048\Bq,0
 ,-2.75510204,4.3877551,-2.16727059\Bq,0,-2.55102041,4.3877551,-1.88998
 486\Bq,0,-2.34693878,4.3877551,-1.61332327\Bq,0,-2.14285714,4.3877551,
 -1.33728582\Bq,0,-1.93877551,4.3877551,-1.06187252\Bq,0,-1.73469388,4.
 3877551,-0.78708336\Bq,0,-1.53061224,4.3877551,-0.51291834\Bq,0,-1.326
 53061,4.3877551,-0.23937748\Bq,0,-1.12244898,4.3877551,0.03353925\Bq,0
 ,-0.91836735,4.3877551,0.30583183\Bq,0,-0.71428571,4.3877551,0.5775002
 6\Bq,0,-0.51020408,4.3877551,0.84854455\Bq,0,-0.30612245,4.3877551,1.1
 1896469\Bq,0,-0.10204082,4.3877551,1.38876069\Bq,0,0.10204082,4.387755
 1,1.65793255\Bq,0,0.30612245,4.3877551,1.92648026\Bq,0,0.51020408,4.38
 77551,2.19440382\Bq,0,0.71428571,4.3877551,2.46170325\Bq,0,0.91836735,
 4.3877551,2.72837852\Bq,0,1.12244898,4.3877551,2.99442965\Bq,0,1.32653
 061,4.3877551,3.25985664\Bq,0,1.53061224,4.3877551,3.52465948\Bq,0,1.7
 3469388,4.3877551,3.78883818\Bq,0,1.93877551,4.3877551,4.05239273\Bq,0
 ,2.14285714,4.3877551,4.31532314\Bq,0,2.34693878,4.3877551,4.5776294\B
 q,0,2.55102041,4.3877551,4.83931152\Bq,0,2.75510204,4.3877551,5.100369
 49\Bq,0,2.95918367,4.3877551,5.36080332\Bq,0,3.16326531,4.3877551,5.62
 0613\Bq,0,3.36734694,4.3877551,5.87979854\Bq,0,3.57142857,4.3877551,6.
 13835994\Bq,0,3.7755102,4.3877551,6.39629719\Bq,0,3.97959184,4.3877551
 ,6.65361029\Bq,0,4.18367347,4.3877551,6.91029925\Bq,0,4.3877551,4.3877
 551,7.16636407\Bq,0,4.59183673,4.3877551,7.42180474\Bq,0,4.79591837,4.
 3877551,7.67662126\Bq,0,5.,4.3877551,7.93081365\Bq,0,-5.,4.59183673,-5
 .50873131\Bq,0,-4.79591837,4.59183673,-5.21313022\Bq,0,-4.59183673,4.5
 9183673,-4.91815328\Bq,0,-4.3877551,4.59183673,-4.62380048\Bq,0,-4.183
 67347,4.59183673,-4.33007182\Bq,0,-3.97959184,4.59183673,-4.03696731\B
 q,0,-3.7755102,4.59183673,-3.74448694\Bq,0,-3.57142857,4.59183673,-3.4
 5263072\Bq,0,-3.36734694,4.59183673,-3.16139864\Bq,0,-3.16326531,4.591
 83673,-2.87079071\Bq,0,-2.95918367,4.59183673,-2.58080692\Bq,0,-2.7551
 0204,4.59183673,-2.29144728\Bq,0,-2.55102041,4.59183673,-2.00271178\Bq
 ,0,-2.34693878,4.59183673,-1.71460042\Bq,0,-2.14285714,4.59183673,-1.4
 2711321\Bq,0,-1.93877551,4.59183673,-1.14025015\Bq,0,-1.73469388,4.591
 83673,-0.85401123\Bq,0,-1.53061224,4.59183673,-0.56839645\Bq,0,-1.3265
 3061,4.59183673,-0.28340582\Bq,0,-1.12244898,4.59183673,0.00096066\Bq,
 0,-0.91836735,4.59183673,0.284703\Bq,0,-0.71428571,4.59183673,0.567821
 2\Bq,0,-0.51020408,4.59183673,0.85031525\Bq,0,-0.30612245,4.59183673,1
 .13218516\Bq,0,-0.10204082,4.59183673,1.41343092\Bq,0,0.10204082,4.591
 83673,1.69405253\Bq,0,0.30612245,4.59183673,1.97405001\Bq,0,0.51020408
 ,4.59183673,2.25342333\Bq,0,0.71428571,4.59183673,2.53217252\Bq,0,0.91
 836735,4.59183673,2.81029756\Bq,0,1.12244898,4.59183673,3.08779845\Bq,
 0,1.32653061,4.59183673,3.3646752\Bq,0,1.53061224,4.59183673,3.6409278
 \Bq,0,1.73469388,4.59183673,3.91655626\Bq,0,1.93877551,4.59183673,4.19
 156057\Bq,0,2.14285714,4.59183673,4.46594074\Bq,0,2.34693878,4.5918367
 3,4.73969677\Bq,0,2.55102041,4.59183673,5.01282865\Bq,0,2.75510204,4.5
 9183673,5.28533638\Bq,0,2.95918367,4.59183673,5.55721997\Bq,0,3.163265
 31,4.59183673,5.82847942\Bq,0,3.36734694,4.59183673,6.09911472\Bq,0,3.
 57142857,4.59183673,6.36912588\Bq,0,3.7755102,4.59183673,6.63851289\Bq
 ,0,3.97959184,4.59183673,6.90727576\Bq,0,4.18367347,4.59183673,7.17541
 448\Bq,0,4.3877551,4.59183673,7.44292906\Bq,0,4.59183673,4.59183673,7.
 70981949\Bq,0,4.79591837,4.59183673,7.97608578\Bq,0,5.,4.59183673,8.24
 172792\Bq,0,-5.,4.79591837,-5.75827126\Bq,0,-4.79591837,4.79591837,-5.
 45122041\Bq,0,-4.59183673,4.79591837,-5.1447937\Bq,0,-4.3877551,4.7959
 1837,-4.83899114\Bq,0,-4.18367347,4.79591837,-4.53381272\Bq,0,-3.97959
 184,4.79591837,-4.22925845\Bq,0,-3.7755102,4.79591837,-3.92532832\Bq,0
 ,-3.57142857,4.79591837,-3.62202233\Bq,0,-3.36734694,4.79591837,-3.319
 34049\Bq,0,-3.16326531,4.79591837,-3.0172828\Bq,0,-2.95918367,4.795918
 37,-2.71584925\Bq,0,-2.75510204,4.79591837,-2.41503984\Bq,0,-2.5510204
 1,4.79591837,-2.11485458\Bq,0,-2.34693878,4.79591837,-1.81529347\Bq,0,
 -2.14285714,4.79591837,-1.51635649\Bq,0,-1.93877551,4.79591837,-1.2180
 4367\Bq,0,-1.73469388,4.79591837,-0.92035499\Bq,0,-1.53061224,4.795918
 37,-0.62329045\Bq,0,-1.32653061,4.79591837,-0.32685006\Bq,0,-1.1224489
 8,4.79591837,-0.03103381\Bq,0,-0.91836735,4.79591837,0.26415829\Bq,0,-
 0.71428571,4.79591837,0.55872625\Bq,0,-0.51020408,4.79591837,0.8526700
 6\Bq,0,-0.30612245,4.79591837,1.14598973\Bq,0,-0.10204082,4.79591837,1
 .43868526\Bq,0,0.10204082,4.79591837,1.73075663\Bq,0,0.30612245,4.7959
 1837,2.02220387\Bq,0,0.51020408,4.79591837,2.31302696\Bq,0,0.71428571,
 4.79591837,2.6032259\Bq,0,0.91836735,4.79591837,2.8928007\Bq,0,1.12244
 898,4.79591837,3.18175136\Bq,0,1.32653061,4.79591837,3.47007787\Bq,0,1
 .53061224,4.79591837,3.75778023\Bq,0,1.73469388,4.79591837,4.04485846\
 Bq,0,1.93877551,4.79591837,4.33131253\Bq,0,2.14285714,4.79591837,4.617
 14246\Bq,0,2.34693878,4.79591837,4.90234825\Bq,0,2.55102041,4.79591837
 ,5.18692989\Bq,0,2.75510204,4.79591837,5.47088739\Bq,0,2.95918367,4.79
 591837,5.75422074\Bq,0,3.16326531,4.79591837,6.03692995\Bq,0,3.3673469
 4,4.79591837,6.31901501\Bq,0,3.57142857,4.79591837,6.60047593\Bq,0,3.7
 755102,4.79591837,6.8813127\Bq,0,3.97959184,4.79591837,7.16152533\Bq,0
 ,4.18367347,4.79591837,7.44111382\Bq,0,4.3877551,4.79591837,7.72007816
 \Bq,0,4.59183673,4.79591837,7.99841835\Bq,0,4.79591837,4.79591837,8.27
 61344\Bq,0,5.,4.79591837,8.55322631\Bq,0,-5.,5.,-6.0072271\Bq,0,-4.795
 91837,5.,-5.68872648\Bq,0,-4.59183673,5.,-5.37085001\Bq,0,-4.3877551,5
 .,-5.05359769\Bq,0,-4.18367347,5.,-4.73696951\Bq,0,-3.97959184,5.,-4.4
 2096547\Bq,0,-3.7755102,5.,-4.10558558\Bq,0,-3.57142857,5.,-3.79082983
 \Bq,0,-3.36734694,5.,-3.47669823\Bq,0,-3.16326531,5.,-3.16319078\Bq,0,
 -2.95918367,5.,-2.85030746\Bq,0,-2.75510204,5.,-2.5380483\Bq,0,-2.5510
 2041,5.,-2.22641327\Bq,0,-2.34693878,5.,-1.9154024\Bq,0,-2.14285714,5.
 ,-1.60501566\Bq,0,-1.93877551,5.,-1.29525307\Bq,0,-1.73469388,5.,-0.98
 611463\Bq,0,-1.53061224,5.,-0.67760033\Bq,0,-1.32653061,5.,-0.36971018
 \Bq,0,-1.12244898,5.,-0.06244417\Bq,0,-0.91836735,5.,0.2441977\Bq,0,-0
 .71428571,5.,0.55021542\Bq,0,-0.51020408,5.,0.85560899\Bq,0,-0.3061224
 5,5.,1.16037842\Bq,0,-0.10204082,5.,1.46452371\Bq,0,0.10204082,5.,1.76
 804485\Bq,0,0.30612245,5.,2.07094184\Bq,0,0.51020408,5.,2.3732147\Bq,0
 ,0.71428571,5.,2.6748634\Bq,0,0.91836735,5.,2.97588796\Bq,0,1.12244898
 ,5.,3.27628838\Bq,0,1.32653061,5.,3.57606465\Bq,0,1.53061224,5.,3.8752
 1678\Bq,0,1.73469388,5.,4.17374477\Bq,0,1.93877551,5.,4.4716486\Bq,0,2
 .14285714,5.,4.7689283\Bq,0,2.34693878,5.,5.06558385\Bq,0,2.55102041,5
 .,5.36161525\Bq,0,2.75510204,5.,5.65702251\Bq,0,2.95918367,5.,5.951805
 62\Bq,0,3.16326531,5.,6.24596459\Bq,0,3.36734694,5.,6.53949942\Bq,0,3.
 57142857,5.,6.8324101\Bq,0,3.7755102,5.,7.12469663\Bq,0,3.97959184,5.,
 7.41635902\Bq,0,4.18367347,5.,7.70739727\Bq,0,4.3877551,5.,7.99781137\
 Bq,0,4.59183673,5.,8.28760133\Bq,0,4.79591837,5.,8.57676714\Bq,0,5.,5.
 ,8.86530881\\Version=EM64L-G09RevD.01\HF=-23266.1501813\RMSD=9.770e-09
 \Dipole=-0.0005257,0.000209,0.0036948\Quadrupole=2.1352864,2.6261133,-
 4.7613997,-0.0425569,0.6524521,0.5294667\PG=C01 [X(C10As10N10)]\\@


 The mind is not a vessel to be filled but a fire to be kindled.
                                  -- Plutarch
 Job cpu time:       0 days  1 hours  4 minutes 41.1 seconds.
 File lengths (MBytes):  RWF=    228 Int=      0 D2E=      0 Chk=     25 Scr=      1
 Normal termination of Gaussian 09 at Sun Nov 17 10:39:59 2019.
