 Entering Gaussian System, Link 0=g09
 Input=benzene.gjf
 Output=benzene.log
 Initial command:
 /opt/local/g09/l1.exe "/home/scratch/oscar/Gau-31769.inp" -scrdir="/home/scratch/oscar/"
 Default is to use a total of  16 processors:
                               16 via shared-memory
                                1 via Linda
 Entering Link 1 = /opt/local/g09/l1.exe PID=     31770.
  
 Copyright (c) 1988,1990,1992,1993,1995,1998,2003,2009,2013,
            Gaussian, Inc.  All Rights Reserved.
  
 This is part of the Gaussian(R) 09 program.  It is based on
 the Gaussian(R) 03 system (copyright 2003, Gaussian, Inc.),
 the Gaussian(R) 98 system (copyright 1998, Gaussian, Inc.),
 the Gaussian(R) 94 system (copyright 1995, Gaussian, Inc.),
 the Gaussian 92(TM) system (copyright 1992, Gaussian, Inc.),
 the Gaussian 90(TM) system (copyright 1990, Gaussian, Inc.),
 the Gaussian 88(TM) system (copyright 1988, Gaussian, Inc.),
 the Gaussian 86(TM) system (copyright 1986, Carnegie Mellon
 University), and the Gaussian 82(TM) system (copyright 1983,
 Carnegie Mellon University). Gaussian is a federally registered
 trademark of Gaussian, Inc.
  
 This software contains proprietary and confidential information,
 including trade secrets, belonging to Gaussian, Inc.
  
 This software is provided under written license and may be
 used, copied, transmitted, or stored only in accord with that
 written license.
  
 The following legend is applicable only to US Government
 contracts under FAR:
  
                    RESTRICTED RIGHTS LEGEND
  
 Use, reproduction and disclosure by the US Government is
 subject to restrictions as set forth in subparagraphs (a)
 and (c) of the Commercial Computer Software - Restricted
 Rights clause in FAR 52.227-19.
  
 Gaussian, Inc.
 340 Quinnipiac St., Bldg. 40, Wallingford CT 06492
  
  
 ---------------------------------------------------------------
 Warning -- This program may not be used in any manner that
 competes with the business of Gaussian, Inc. or will provide
 assistance to any competitor of Gaussian, Inc.  The licensee
 of this program is prohibited from giving any competitor of
 Gaussian, Inc. access to this program.  By using this program,
 the user acknowledges that Gaussian, Inc. is engaged in the
 business of creating and licensing software in the field of
 computational chemistry and represents and warrants to the
 licensee that it is not a competitor of Gaussian, Inc. and that
 it will not use this program in any manner prohibited above.
 ---------------------------------------------------------------
  

 Cite this work as:
 Gaussian 09, Revision D.01,
 M. J. Frisch, G. W. Trucks, H. B. Schlegel, G. E. Scuseria, 
 M. A. Robb, J. R. Cheeseman, G. Scalmani, V. Barone, B. Mennucci, 
 G. A. Petersson, H. Nakatsuji, M. Caricato, X. Li, H. P. Hratchian, 
 A. F. Izmaylov, J. Bloino, G. Zheng, J. L. Sonnenberg, M. Hada, 
 M. Ehara, K. Toyota, R. Fukuda, J. Hasegawa, M. Ishida, T. Nakajima, 
 Y. Honda, O. Kitao, H. Nakai, T. Vreven, J. A. Montgomery, Jr., 
 J. E. Peralta, F. Ogliaro, M. Bearpark, J. J. Heyd, E. Brothers, 
 K. N. Kudin, V. N. Staroverov, T. Keith, R. Kobayashi, J. Normand, 
 K. Raghavachari, A. Rendell, J. C. Burant, S. S. Iyengar, J. Tomasi, 
 M. Cossi, N. Rega, J. M. Millam, M. Klene, J. E. Knox, J. B. Cross, 
 V. Bakken, C. Adamo, J. Jaramillo, R. Gomperts, R. E. Stratmann, 
 O. Yazyev, A. J. Austin, R. Cammi, C. Pomelli, J. W. Ochterski, 
 R. L. Martin, K. Morokuma, V. G. Zakrzewski, G. A. Voth, 
 P. Salvador, J. J. Dannenberg, S. Dapprich, A. D. Daniels, 
 O. Farkas, J. B. Foresman, J. V. Ortiz, J. Cioslowski, 
 and D. J. Fox, Gaussian, Inc., Wallingford CT, 2013.
 
 ******************************************
 Gaussian 09:  EM64L-G09RevD.01 24-Apr-2013
                17-Nov-2019 
 ******************************************
 -------------------------------------------------------------
 # nmr=giao b3lyp/6-31G* nosymm geom=connectivity guess=huckel
 -------------------------------------------------------------
 1/38=1,57=2/1;
 2/12=2,15=1,17=6,18=5,40=1/2;
 3/5=1,6=6,7=1,11=2,16=1,25=1,30=1,74=-5/1,2,8,3;
 4/11=4/1;
 5/5=2,38=5/2;
 8/6=1,10=90,11=11/1;
 10/13=100,31=1,45=16/2;
 6/7=2,8=2,9=2,10=2,28=1/1;
 99/9=1/99;
 -----
 input
 -----
 Symbolic Z-matrix:
 Charge =  0 Multiplicity = 1
 H                     1.34237   2.09221   0.02366 
 C                     0.75131   1.17076   0.01318 
 C                    -0.63827   1.23569   0.03206 
 H                    -1.14069   2.2079    0.05741 
 C                    -1.38937   0.06492   0.01884 
 H                    -2.48284   0.11598   0.03381 
 C                    -0.75121  -1.17086  -0.01332 
 H                    -1.34235  -2.0921   -0.0237 
 C                     0.63828  -1.23567  -0.03209 
 H                     1.14041  -2.20806  -0.05722 
 C                     1.38949  -0.06491  -0.01888 
 H                     2.48286  -0.11587  -0.03374 
 Bq                   -3.       -3.        0.97976 
 Bq                   -2.87755  -3.        0.9782 
 Bq                   -2.7551   -3.        0.97665 
 Bq                   -2.63265  -3.        0.97509 
 Bq                   -2.5102   -3.        0.97354 
 Bq                   -2.38776  -3.        0.97199 
 Bq                   -2.26531  -3.        0.97044 
 Bq                   -2.14286  -3.        0.96888 
 Bq                   -2.02041  -3.        0.96733 
 Bq                   -1.89796  -3.        0.96578 
 Bq                   -1.77551  -3.        0.96423 
 Bq                   -1.65306  -3.        0.96268 
 Bq                   -1.53061  -3.        0.96113 
 Bq                   -1.40816  -3.        0.95958 
 Bq                   -1.28571  -3.        0.95803 
 Bq                   -1.16327  -3.        0.95648 
 Bq                   -1.04082  -3.        0.95494 
 Bq                   -0.91837  -3.        0.95339 
 Bq                   -0.79592  -3.        0.95184 
 Bq                   -0.67347  -3.        0.9503 
 Bq                   -0.55102  -3.        0.94875 
 Bq                   -0.42857  -3.        0.9472 
 Bq                   -0.30612  -3.        0.94566 
 Bq                   -0.18367  -3.        0.94411 
 Bq                   -0.06122  -3.        0.94257 
 Bq                    0.06122  -3.        0.94103 
 Bq                    0.18367  -3.        0.93948 
 Bq                    0.30612  -3.        0.93794 
 Bq                    0.42857  -3.        0.9364 
 Bq                    0.55102  -3.        0.93486 
 Bq                    0.67347  -3.        0.93332 
 Bq                    0.79592  -3.        0.93177 
 Bq                    0.91837  -3.        0.93023 
 Bq                    1.04082  -3.        0.92869 
 Bq                    1.16327  -3.        0.92715 
 Bq                    1.28571  -3.        0.92562 
 Bq                    1.40816  -3.        0.92408 
 Bq                    1.53061  -3.        0.92254 
 Bq                    1.65306  -3.        0.921 
 Bq                    1.77551  -3.        0.91946 
 Bq                    1.89796  -3.        0.91793 
 Bq                    2.02041  -3.        0.91639 
 Bq                    2.14286  -3.        0.91485 
 Bq                    2.26531  -3.        0.91332 
 Bq                    2.38776  -3.        0.91178 
 Bq                    2.5102   -3.        0.91025 
 Bq                    2.63265  -3.        0.90872 
 Bq                    2.7551   -3.        0.90718 
 Bq                    2.87755  -3.        0.90565 
 Bq                    3.       -3.        0.90412 
 Bq                   -3.       -2.87755   0.98213 
 Bq                   -2.87755  -2.87755   0.98058 
 Bq                   -2.7551   -2.87755   0.97902 
 Bq                   -2.63265  -2.87755   0.97747 
 Bq                   -2.5102   -2.87755   0.97591 
 Bq                   -2.38776  -2.87755   0.97436 
 Bq                   -2.26531  -2.87755   0.97281 
 Bq                   -2.14286  -2.87755   0.97126 
 Bq                   -2.02041  -2.87755   0.9697 
 Bq                   -1.89796  -2.87755   0.96815 
 Bq                   -1.77551  -2.87755   0.9666 
 Bq                   -1.65306  -2.87755   0.96505 
 Bq                   -1.53061  -2.87755   0.9635 
 Bq                   -1.40816  -2.87755   0.96195 
 Bq                   -1.28571  -2.87755   0.9604 
 Bq                   -1.16327  -2.87755   0.95885 
 Bq                   -1.04082  -2.87755   0.95731 
 Bq                   -0.91837  -2.87755   0.95576 
 Bq                   -0.79592  -2.87755   0.95421 
 Bq                   -0.67347  -2.87755   0.95266 
 Bq                   -0.55102  -2.87755   0.95112 
 Bq                   -0.42857  -2.87755   0.94957 
 Bq                   -0.30612  -2.87755   0.94803 
 Bq                   -0.18367  -2.87755   0.94648 
 Bq                   -0.06122  -2.87755   0.94494 
 Bq                    0.06122  -2.87755   0.94339 
 Bq                    0.18367  -2.87755   0.94185 
 Bq                    0.30612  -2.87755   0.94031 
 Bq                    0.42857  -2.87755   0.93876 
 Bq                    0.55102  -2.87755   0.93722 
 Bq                    0.67347  -2.87755   0.93568 
 Bq                    0.79592  -2.87755   0.93414 
 Bq                    0.91837  -2.87755   0.9326 
 Bq                    1.04082  -2.87755   0.93106 
 Bq                    1.16327  -2.87755   0.92952 
 Bq                    1.28571  -2.87755   0.92798 
 Bq                    1.40816  -2.87755   0.92644 
 Bq                    1.53061  -2.87755   0.9249 
 Bq                    1.65306  -2.87755   0.92336 
 Bq                    1.77551  -2.87755   0.92183 
 Bq                    1.89796  -2.87755   0.92029 
 Bq                    2.02041  -2.87755   0.91875 
 Bq                    2.14286  -2.87755   0.91722 
 Bq                    2.26531  -2.87755   0.91568 
 Bq                    2.38776  -2.87755   0.91414 
 Bq                    2.5102   -2.87755   0.91261 
 Bq                    2.63265  -2.87755   0.91108 
 Bq                    2.7551   -2.87755   0.90954 
 Bq                    2.87755  -2.87755   0.90801 
 Bq                    3.       -2.87755   0.90647 
 Bq                   -3.       -2.7551    0.98451 
 Bq                   -2.87755  -2.7551    0.98295 
 Bq                   -2.7551   -2.7551    0.9814 
 Bq                   -2.63265  -2.7551    0.97984 
 Bq                   -2.5102   -2.7551    0.97829 
 Bq                   -2.38776  -2.7551    0.97673 
 Bq                   -2.26531  -2.7551    0.97518 
 Bq                   -2.14286  -2.7551    0.97363 
 Bq                   -2.02041  -2.7551    0.97208 
 Bq                   -1.89796  -2.7551    0.97053 
 Bq                   -1.77551  -2.7551    0.96897 
 Bq                   -1.65306  -2.7551    0.96742 
 Bq                   -1.53061  -2.7551    0.96587 
 Bq                   -1.40816  -2.7551    0.96432 
 Bq                   -1.28571  -2.7551    0.96277 
 Bq                   -1.16327  -2.7551    0.96122 
 Bq                   -1.04082  -2.7551    0.95968 
 Bq                   -0.91837  -2.7551    0.95813 
 Bq                   -0.79592  -2.7551    0.95658 
 Bq                   -0.67347  -2.7551    0.95503 
 Bq                   -0.55102  -2.7551    0.95349 
 Bq                   -0.42857  -2.7551    0.95194 
 Bq                   -0.30612  -2.7551    0.9504 
 Bq                   -0.18367  -2.7551    0.94885 
 Bq                   -0.06122  -2.7551    0.94731 
 Bq                    0.06122  -2.7551    0.94576 
 Bq                    0.18367  -2.7551    0.94422 
 Bq                    0.30612  -2.7551    0.94267 
 Bq                    0.42857  -2.7551    0.94113 
 Bq                    0.55102  -2.7551    0.93959 
 Bq                    0.67347  -2.7551    0.93805 
 Bq                    0.79592  -2.7551    0.9365 
 Bq                    0.91837  -2.7551    0.93496 
 Bq                    1.04082  -2.7551    0.93342 
 Bq                    1.16327  -2.7551    0.93188 
 Bq                    1.28571  -2.7551    0.93034 
 Bq                    1.40816  -2.7551    0.9288 
 Bq                    1.53061  -2.7551    0.92726 
 Bq                    1.65306  -2.7551    0.92573 
 Bq                    1.77551  -2.7551    0.92419 
 Bq                    1.89796  -2.7551    0.92265 
 Bq                    2.02041  -2.7551    0.92111 
 Bq                    2.14286  -2.7551    0.91958 
 Bq                    2.26531  -2.7551    0.91804 
 Bq                    2.38776  -2.7551    0.91651 
 Bq                    2.5102   -2.7551    0.91497 
 Bq                    2.63265  -2.7551    0.91344 
 Bq                    2.7551   -2.7551    0.9119 
 Bq                    2.87755  -2.7551    0.91037 
 Bq                    3.       -2.7551    0.90883 
 Bq                   -3.       -2.63265   0.98688 
 Bq                   -2.87755  -2.63265   0.98533 
 Bq                   -2.7551   -2.63265   0.98377 
 Bq                   -2.63265  -2.63265   0.98222 
 Bq                   -2.5102   -2.63265   0.98066 
 Bq                   -2.38776  -2.63265   0.97911 
 Bq                   -2.26531  -2.63265   0.97756 
 Bq                   -2.14286  -2.63265   0.976 
 Bq                   -2.02041  -2.63265   0.97445 
 Bq                   -1.89796  -2.63265   0.9729 
 Bq                   -1.77551  -2.63265   0.97135 
 Bq                   -1.65306  -2.63265   0.9698 
 Bq                   -1.53061  -2.63265   0.96824 
 Bq                   -1.40816  -2.63265   0.96669 
 Bq                   -1.28571  -2.63265   0.96514 
 Bq                   -1.16327  -2.63265   0.9636 
 Bq                   -1.04082  -2.63265   0.96205 
 Bq                   -0.91837  -2.63265   0.9605 
 Bq                   -0.79592  -2.63265   0.95895 
 Bq                   -0.67347  -2.63265   0.9574 
 Bq                   -0.55102  -2.63265   0.95586 
 Bq                   -0.42857  -2.63265   0.95431 
 Bq                   -0.30612  -2.63265   0.95276 
 Bq                   -0.18367  -2.63265   0.95122 
 Bq                   -0.06122  -2.63265   0.94967 
 Bq                    0.06122  -2.63265   0.94813 
 Bq                    0.18367  -2.63265   0.94658 
 Bq                    0.30612  -2.63265   0.94504 
 Bq                    0.42857  -2.63265   0.9435 
 Bq                    0.55102  -2.63265   0.94195 
 Bq                    0.67347  -2.63265   0.94041 
 Bq                    0.79592  -2.63265   0.93887 
 Bq                    0.91837  -2.63265   0.93733 
 Bq                    1.04082  -2.63265   0.93579 
 Bq                    1.16327  -2.63265   0.93425 
 Bq                    1.28571  -2.63265   0.93271 
 Bq                    1.40816  -2.63265   0.93117 
 Bq                    1.53061  -2.63265   0.92963 
 Bq                    1.65306  -2.63265   0.92809 
 Bq                    1.77551  -2.63265   0.92655 
 Bq                    1.89796  -2.63265   0.92501 
 Bq                    2.02041  -2.63265   0.92348 
 Bq                    2.14286  -2.63265   0.92194 
 Bq                    2.26531  -2.63265   0.9204 
 Bq                    2.38776  -2.63265   0.91887 
 Bq                    2.5102   -2.63265   0.91733 
 Bq                    2.63265  -2.63265   0.9158 
 Bq                    2.7551   -2.63265   0.91426 
 Bq                    2.87755  -2.63265   0.91273 
 Bq                    3.       -2.63265   0.91119 
 Bq                   -3.       -2.5102    0.98926 
 Bq                   -2.87755  -2.5102    0.9877 
 Bq                   -2.7551   -2.5102    0.98615 
 Bq                   -2.63265  -2.5102    0.98459 
 Bq                   -2.5102   -2.5102    0.98304 
 Bq                   -2.38776  -2.5102    0.98148 
 Bq                   -2.26531  -2.5102    0.97993 
 Bq                   -2.14286  -2.5102    0.97838 
 Bq                   -2.02041  -2.5102    0.97682 
 Bq                   -1.89796  -2.5102    0.97527 
 Bq                   -1.77551  -2.5102    0.97372 
 Bq                   -1.65306  -2.5102    0.97217 
 Bq                   -1.53061  -2.5102    0.97062 
 Bq                   -1.40816  -2.5102    0.96907 
 Bq                   -1.28571  -2.5102    0.96752 
 Bq                   -1.16327  -2.5102    0.96597 
 Bq                   -1.04082  -2.5102    0.96442 
 Bq                   -0.91837  -2.5102    0.96287 
 Bq                   -0.79592  -2.5102    0.96132 
 Bq                   -0.67347  -2.5102    0.95977 
 Bq                   -0.55102  -2.5102    0.95823 
 Bq                   -0.42857  -2.5102    0.95668 
 Bq                   -0.30612  -2.5102    0.95513 
 Bq                   -0.18367  -2.5102    0.95359 
 Bq                   -0.06122  -2.5102    0.95204 
 Bq                    0.06122  -2.5102    0.9505 
 Bq                    0.18367  -2.5102    0.94895 
 Bq                    0.30612  -2.5102    0.94741 
 Bq                    0.42857  -2.5102    0.94586 
 Bq                    0.55102  -2.5102    0.94432 
 Bq                    0.67347  -2.5102    0.94278 
 Bq                    0.79592  -2.5102    0.94124 
 Bq                    0.91837  -2.5102    0.93969 
 Bq                    1.04082  -2.5102    0.93815 
 Bq                    1.16327  -2.5102    0.93661 
 Bq                    1.28571  -2.5102    0.93507 
 Bq                    1.40816  -2.5102    0.93353 
 Bq                    1.53061  -2.5102    0.93199 
 Bq                    1.65306  -2.5102    0.93045 
 Bq                    1.77551  -2.5102    0.92891 
 Bq                    1.89796  -2.5102    0.92738 
 Bq                    2.02041  -2.5102    0.92584 
 Bq                    2.14286  -2.5102    0.9243 
 Bq                    2.26531  -2.5102    0.92276 
 Bq                    2.38776  -2.5102    0.92123 
 Bq                    2.5102   -2.5102    0.91969 
 Bq                    2.63265  -2.5102    0.91816 
 Bq                    2.7551   -2.5102    0.91662 
 Bq                    2.87755  -2.5102    0.91509 
 Bq                    3.       -2.5102    0.91355 
 Bq                   -3.       -2.38776   0.99164 
 Bq                   -2.87755  -2.38776   0.99008 
 Bq                   -2.7551   -2.38776   0.98852 
 Bq                   -2.63265  -2.38776   0.98697 
 Bq                   -2.5102   -2.38776   0.98541 
 Bq                   -2.38776  -2.38776   0.98386 
 Bq                   -2.26531  -2.38776   0.9823 
 Bq                   -2.14286  -2.38776   0.98075 
 Bq                   -2.02041  -2.38776   0.9792 
 Bq                   -1.89796  -2.38776   0.97765 
 Bq                   -1.77551  -2.38776   0.97609 
 Bq                   -1.65306  -2.38776   0.97454 
 Bq                   -1.53061  -2.38776   0.97299 
 Bq                   -1.40816  -2.38776   0.97144 
 Bq                   -1.28571  -2.38776   0.96989 
 Bq                   -1.16327  -2.38776   0.96834 
 Bq                   -1.04082  -2.38776   0.96679 
 Bq                   -0.91837  -2.38776   0.96524 
 Bq                   -0.79592  -2.38776   0.96369 
 Bq                   -0.67347  -2.38776   0.96214 
 Bq                   -0.55102  -2.38776   0.9606 
 Bq                   -0.42857  -2.38776   0.95905 
 Bq                   -0.30612  -2.38776   0.9575 
 Bq                   -0.18367  -2.38776   0.95596 
 Bq                   -0.06122  -2.38776   0.95441 
 Bq                    0.06122  -2.38776   0.95287 
 Bq                    0.18367  -2.38776   0.95132 
 Bq                    0.30612  -2.38776   0.94978 
 Bq                    0.42857  -2.38776   0.94823 
 Bq                    0.55102  -2.38776   0.94669 
 Bq                    0.67347  -2.38776   0.94515 
 Bq                    0.79592  -2.38776   0.9436 
 Bq                    0.91837  -2.38776   0.94206 
 Bq                    1.04082  -2.38776   0.94052 
 Bq                    1.16327  -2.38776   0.93898 
 Bq                    1.28571  -2.38776   0.93744 
 Bq                    1.40816  -2.38776   0.9359 
 Bq                    1.53061  -2.38776   0.93436 
 Bq                    1.65306  -2.38776   0.93282 
 Bq                    1.77551  -2.38776   0.93128 
 Bq                    1.89796  -2.38776   0.92974 
 Bq                    2.02041  -2.38776   0.9282 
 Bq                    2.14286  -2.38776   0.92666 
 Bq                    2.26531  -2.38776   0.92513 
 Bq                    2.38776  -2.38776   0.92359 
 Bq                    2.5102   -2.38776   0.92205 
 Bq                    2.63265  -2.38776   0.92052 
 Bq                    2.7551   -2.38776   0.91898 
 Bq                    2.87755  -2.38776   0.91745 
 Bq                    3.       -2.38776   0.91591 
 Bq                   -3.       -2.26531   0.99401 
 Bq                   -2.87755  -2.26531   0.99246 
 Bq                   -2.7551   -2.26531   0.9909 
 Bq                   -2.63265  -2.26531   0.98934 
 Bq                   -2.5102   -2.26531   0.98779 
 Bq                   -2.38776  -2.26531   0.98623 
 Bq                   -2.26531  -2.26531   0.98468 
 Bq                   -2.14286  -2.26531   0.98313 
 Bq                   -2.02041  -2.26531   0.98157 
 Bq                   -1.89796  -2.26531   0.98002 
 Bq                   -1.77551  -2.26531   0.97847 
 Bq                   -1.65306  -2.26531   0.97692 
 Bq                   -1.53061  -2.26531   0.97536 
 Bq                   -1.40816  -2.26531   0.97381 
 Bq                   -1.28571  -2.26531   0.97226 
 Bq                   -1.16327  -2.26531   0.97071 
 Bq                   -1.04082  -2.26531   0.96916 
 Bq                   -0.91837  -2.26531   0.96761 
 Bq                   -0.79592  -2.26531   0.96606 
 Bq                   -0.67347  -2.26531   0.96452 
 Bq                   -0.55102  -2.26531   0.96297 
 Bq                   -0.42857  -2.26531   0.96142 
 Bq                   -0.30612  -2.26531   0.95987 
 Bq                   -0.18367  -2.26531   0.95833 
 Bq                   -0.06122  -2.26531   0.95678 
 Bq                    0.06122  -2.26531   0.95523 
 Bq                    0.18367  -2.26531   0.95369 
 Bq                    0.30612  -2.26531   0.95214 
 Bq                    0.42857  -2.26531   0.9506 
 Bq                    0.55102  -2.26531   0.94906 
 Bq                    0.67347  -2.26531   0.94751 
 Bq                    0.79592  -2.26531   0.94597 
 Bq                    0.91837  -2.26531   0.94443 
 Bq                    1.04082  -2.26531   0.94289 
 Bq                    1.16327  -2.26531   0.94134 
 Bq                    1.28571  -2.26531   0.9398 
 Bq                    1.40816  -2.26531   0.93826 
 Bq                    1.53061  -2.26531   0.93672 
 Bq                    1.65306  -2.26531   0.93518 
 Bq                    1.77551  -2.26531   0.93364 
 Bq                    1.89796  -2.26531   0.9321 
 Bq                    2.02041  -2.26531   0.93057 
 Bq                    2.14286  -2.26531   0.92903 
 Bq                    2.26531  -2.26531   0.92749 
 Bq                    2.38776  -2.26531   0.92595 
 Bq                    2.5102   -2.26531   0.92442 
 Bq                    2.63265  -2.26531   0.92288 
 Bq                    2.7551   -2.26531   0.92135 
 Bq                    2.87755  -2.26531   0.91981 
 Bq                    3.       -2.26531   0.91828 
 Bq                   -3.       -2.14286   0.99639 
 Bq                   -2.87755  -2.14286   0.99483 
 Bq                   -2.7551   -2.14286   0.99328 
 Bq                   -2.63265  -2.14286   0.99172 
 Bq                   -2.5102   -2.14286   0.99017 
 Bq                   -2.38776  -2.14286   0.98861 
 Bq                   -2.26531  -2.14286   0.98706 
 Bq                   -2.14286  -2.14286   0.9855 
 Bq                   -2.02041  -2.14286   0.98395 
 Bq                   -1.89796  -2.14286   0.98239 
 Bq                   -1.77551  -2.14286   0.98084 
 Bq                   -1.65306  -2.14286   0.97929 
 Bq                   -1.53061  -2.14286   0.97774 
 Bq                   -1.40816  -2.14286   0.97619 
 Bq                   -1.28571  -2.14286   0.97464 
 Bq                   -1.16327  -2.14286   0.97308 
 Bq                   -1.04082  -2.14286   0.97153 
 Bq                   -0.91837  -2.14286   0.96998 
 Bq                   -0.79592  -2.14286   0.96844 
 Bq                   -0.67347  -2.14286   0.96689 
 Bq                   -0.55102  -2.14286   0.96534 
 Bq                   -0.42857  -2.14286   0.96379 
 Bq                   -0.30612  -2.14286   0.96224 
 Bq                   -0.18367  -2.14286   0.9607 
 Bq                   -0.06122  -2.14286   0.95915 
 Bq                    0.06122  -2.14286   0.9576 
 Bq                    0.18367  -2.14286   0.95606 
 Bq                    0.30612  -2.14286   0.95451 
 Bq                    0.42857  -2.14286   0.95297 
 Bq                    0.55102  -2.14286   0.95142 
 Bq                    0.67347  -2.14286   0.94988 
 Bq                    0.79592  -2.14286   0.94834 
 Bq                    0.91837  -2.14286   0.9468 
 Bq                    1.04082  -2.14286   0.94525 
 Bq                    1.16327  -2.14286   0.94371 
 Bq                    1.28571  -2.14286   0.94217 
 Bq                    1.40816  -2.14286   0.94063 
 Bq                    1.53061  -2.14286   0.93909 
 Bq                    1.65306  -2.14286   0.93755 
 Bq                    1.77551  -2.14286   0.93601 
 Bq                    1.89796  -2.14286   0.93447 
 Bq                    2.02041  -2.14286   0.93293 
 Bq                    2.14286  -2.14286   0.93139 
 Bq                    2.26531  -2.14286   0.92985 
 Bq                    2.38776  -2.14286   0.92832 
 Bq                    2.5102   -2.14286   0.92678 
 Bq                    2.63265  -2.14286   0.92524 
 Bq                    2.7551   -2.14286   0.92371 
 Bq                    2.87755  -2.14286   0.92217 
 Bq                    3.       -2.14286   0.92064 
 Bq                   -3.       -2.02041   0.99877 
 Bq                   -2.87755  -2.02041   0.99721 
 Bq                   -2.7551   -2.02041   0.99566 
 Bq                   -2.63265  -2.02041   0.9941 
 Bq                   -2.5102   -2.02041   0.99254 
 Bq                   -2.38776  -2.02041   0.99099 
 Bq                   -2.26531  -2.02041   0.98943 
 Bq                   -2.14286  -2.02041   0.98788 
 Bq                   -2.02041  -2.02041   0.98632 
 Bq                   -1.89796  -2.02041   0.98477 
 Bq                   -1.77551  -2.02041   0.98322 
 Bq                   -1.65306  -2.02041   0.98166 
 Bq                   -1.53061  -2.02041   0.98011 
 Bq                   -1.40816  -2.02041   0.97856 
 Bq                   -1.28571  -2.02041   0.97701 
 Bq                   -1.16327  -2.02041   0.97546 
 Bq                   -1.04082  -2.02041   0.97391 
 Bq                   -0.91837  -2.02041   0.97236 
 Bq                   -0.79592  -2.02041   0.97081 
 Bq                   -0.67347  -2.02041   0.96926 
 Bq                   -0.55102  -2.02041   0.96771 
 Bq                   -0.42857  -2.02041   0.96616 
 Bq                   -0.30612  -2.02041   0.96461 
 Bq                   -0.18367  -2.02041   0.96307 
 Bq                   -0.06122  -2.02041   0.96152 
 Bq                    0.06122  -2.02041   0.95997 
 Bq                    0.18367  -2.02041   0.95843 
 Bq                    0.30612  -2.02041   0.95688 
 Bq                    0.42857  -2.02041   0.95534 
 Bq                    0.55102  -2.02041   0.95379 
 Bq                    0.67347  -2.02041   0.95225 
 Bq                    0.79592  -2.02041   0.95071 
 Bq                    0.91837  -2.02041   0.94916 
 Bq                    1.04082  -2.02041   0.94762 
 Bq                    1.16327  -2.02041   0.94608 
 Bq                    1.28571  -2.02041   0.94454 
 Bq                    1.40816  -2.02041   0.943 
 Bq                    1.53061  -2.02041   0.94145 
 Bq                    1.65306  -2.02041   0.93991 
 Bq                    1.77551  -2.02041   0.93837 
 Bq                    1.89796  -2.02041   0.93683 
 Bq                    2.02041  -2.02041   0.9353 
 Bq                    2.14286  -2.02041   0.93376 
 Bq                    2.26531  -2.02041   0.93222 
 Bq                    2.38776  -2.02041   0.93068 
 Bq                    2.5102   -2.02041   0.92914 
 Bq                    2.63265  -2.02041   0.92761 
 Bq                    2.7551   -2.02041   0.92607 
 Bq                    2.87755  -2.02041   0.92454 
 Bq                    3.       -2.02041   0.923 
 Bq                   -3.       -1.89796   1.00115 
 Bq                   -2.87755  -1.89796   0.99959 
 Bq                   -2.7551   -1.89796   0.99803 
 Bq                   -2.63265  -1.89796   0.99648 
 Bq                   -2.5102   -1.89796   0.99492 
 Bq                   -2.38776  -1.89796   0.99336 
 Bq                   -2.26531  -1.89796   0.99181 
 Bq                   -2.14286  -1.89796   0.99025 
 Bq                   -2.02041  -1.89796   0.9887 
 Bq                   -1.89796  -1.89796   0.98715 
 Bq                   -1.77551  -1.89796   0.98559 
 Bq                   -1.65306  -1.89796   0.98404 
 Bq                   -1.53061  -1.89796   0.98249 
 Bq                   -1.40816  -1.89796   0.98094 
 Bq                   -1.28571  -1.89796   0.97938 
 Bq                   -1.16327  -1.89796   0.97783 
 Bq                   -1.04082  -1.89796   0.97628 
 Bq                   -0.91837  -1.89796   0.97473 
 Bq                   -0.79592  -1.89796   0.97318 
 Bq                   -0.67347  -1.89796   0.97163 
 Bq                   -0.55102  -1.89796   0.97008 
 Bq                   -0.42857  -1.89796   0.96853 
 Bq                   -0.30612  -1.89796   0.96699 
 Bq                   -0.18367  -1.89796   0.96544 
 Bq                   -0.06122  -1.89796   0.96389 
 Bq                    0.06122  -1.89796   0.96235 
 Bq                    0.18367  -1.89796   0.9608 
 Bq                    0.30612  -1.89796   0.95925 
 Bq                    0.42857  -1.89796   0.95771 
 Bq                    0.55102  -1.89796   0.95616 
 Bq                    0.67347  -1.89796   0.95462 
 Bq                    0.79592  -1.89796   0.95307 
 Bq                    0.91837  -1.89796   0.95153 
 Bq                    1.04082  -1.89796   0.94999 
 Bq                    1.16327  -1.89796   0.94845 
 Bq                    1.28571  -1.89796   0.9469 
 Bq                    1.40816  -1.89796   0.94536 
 Bq                    1.53061  -1.89796   0.94382 
 Bq                    1.65306  -1.89796   0.94228 
 Bq                    1.77551  -1.89796   0.94074 
 Bq                    1.89796  -1.89796   0.9392 
 Bq                    2.02041  -1.89796   0.93766 
 Bq                    2.14286  -1.89796   0.93612 
 Bq                    2.26531  -1.89796   0.93458 
 Bq                    2.38776  -1.89796   0.93305 
 Bq                    2.5102   -1.89796   0.93151 
 Bq                    2.63265  -1.89796   0.92997 
 Bq                    2.7551   -1.89796   0.92843 
 Bq                    2.87755  -1.89796   0.9269 
 Bq                    3.       -1.89796   0.92536 
 Bq                   -3.       -1.77551   1.00353 
 Bq                   -2.87755  -1.77551   1.00197 
 Bq                   -2.7551   -1.77551   1.00041 
 Bq                   -2.63265  -1.77551   0.99886 
 Bq                   -2.5102   -1.77551   0.9973 
 Bq                   -2.38776  -1.77551   0.99574 
 Bq                   -2.26531  -1.77551   0.99419 
 Bq                   -2.14286  -1.77551   0.99263 
 Bq                   -2.02041  -1.77551   0.99108 
 Bq                   -1.89796  -1.77551   0.98952 
 Bq                   -1.77551  -1.77551   0.98797 
 Bq                   -1.65306  -1.77551   0.98642 
 Bq                   -1.53061  -1.77551   0.98486 
 Bq                   -1.40816  -1.77551   0.98331 
 Bq                   -1.28571  -1.77551   0.98176 
 Bq                   -1.16327  -1.77551   0.98021 
 Bq                   -1.04082  -1.77551   0.97866 
 Bq                   -0.91837  -1.77551   0.97711 
 Bq                   -0.79592  -1.77551   0.97555 
 Bq                   -0.67347  -1.77551   0.97401 
 Bq                   -0.55102  -1.77551   0.97246 
 Bq                   -0.42857  -1.77551   0.97091 
 Bq                   -0.30612  -1.77551   0.96936 
 Bq                   -0.18367  -1.77551   0.96781 
 Bq                   -0.06122  -1.77551   0.96626 
 Bq                    0.06122  -1.77551   0.96472 
 Bq                    0.18367  -1.77551   0.96317 
 Bq                    0.30612  -1.77551   0.96162 
 Bq                    0.42857  -1.77551   0.96008 
 Bq                    0.55102  -1.77551   0.95853 
 Bq                    0.67347  -1.77551   0.95699 
 Bq                    0.79592  -1.77551   0.95544 
 Bq                    0.91837  -1.77551   0.9539 
 Bq                    1.04082  -1.77551   0.95236 
 Bq                    1.16327  -1.77551   0.95081 
 Bq                    1.28571  -1.77551   0.94927 
 Bq                    1.40816  -1.77551   0.94773 
 Bq                    1.53061  -1.77551   0.94619 
 Bq                    1.65306  -1.77551   0.94465 
 Bq                    1.77551  -1.77551   0.94311 
 Bq                    1.89796  -1.77551   0.94157 
 Bq                    2.02041  -1.77551   0.94003 
 Bq                    2.14286  -1.77551   0.93849 
 Bq                    2.26531  -1.77551   0.93695 
 Bq                    2.38776  -1.77551   0.93541 
 Bq                    2.5102   -1.77551   0.93387 
 Bq                    2.63265  -1.77551   0.93234 
 Bq                    2.7551   -1.77551   0.9308 
 Bq                    2.87755  -1.77551   0.92926 
 Bq                    3.       -1.77551   0.92773 
 Bq                   -3.       -1.65306   1.00591 
 Bq                   -2.87755  -1.65306   1.00435 
 Bq                   -2.7551   -1.65306   1.00279 
 Bq                   -2.63265  -1.65306   1.00123 
 Bq                   -2.5102   -1.65306   0.99968 
 Bq                   -2.38776  -1.65306   0.99812 
 Bq                   -2.26531  -1.65306   0.99657 
 Bq                   -2.14286  -1.65306   0.99501 
 Bq                   -2.02041  -1.65306   0.99345 
 Bq                   -1.89796  -1.65306   0.9919 
 Bq                   -1.77551  -1.65306   0.99035 
 Bq                   -1.65306  -1.65306   0.98879 
 Bq                   -1.53061  -1.65306   0.98724 
 Bq                   -1.40816  -1.65306   0.98569 
 Bq                   -1.28571  -1.65306   0.98413 
 Bq                   -1.16327  -1.65306   0.98258 
 Bq                   -1.04082  -1.65306   0.98103 
 Bq                   -0.91837  -1.65306   0.97948 
 Bq                   -0.79592  -1.65306   0.97793 
 Bq                   -0.67347  -1.65306   0.97638 
 Bq                   -0.55102  -1.65306   0.97483 
 Bq                   -0.42857  -1.65306   0.97328 
 Bq                   -0.30612  -1.65306   0.97173 
 Bq                   -0.18367  -1.65306   0.97018 
 Bq                   -0.06122  -1.65306   0.96864 
 Bq                    0.06122  -1.65306   0.96709 
 Bq                    0.18367  -1.65306   0.96554 
 Bq                    0.30612  -1.65306   0.964 
 Bq                    0.42857  -1.65306   0.96245 
 Bq                    0.55102  -1.65306   0.9609 
 Bq                    0.67347  -1.65306   0.95936 
 Bq                    0.79592  -1.65306   0.95781 
 Bq                    0.91837  -1.65306   0.95627 
 Bq                    1.04082  -1.65306   0.95473 
 Bq                    1.16327  -1.65306   0.95318 
 Bq                    1.28571  -1.65306   0.95164 
 Bq                    1.40816  -1.65306   0.9501 
 Bq                    1.53061  -1.65306   0.94856 
 Bq                    1.65306  -1.65306   0.94702 
 Bq                    1.77551  -1.65306   0.94547 
 Bq                    1.89796  -1.65306   0.94393 
 Bq                    2.02041  -1.65306   0.94239 
 Bq                    2.14286  -1.65306   0.94085 
 Bq                    2.26531  -1.65306   0.93932 
 Bq                    2.38776  -1.65306   0.93778 
 Bq                    2.5102   -1.65306   0.93624 
 Bq                    2.63265  -1.65306   0.9347 
 Bq                    2.7551   -1.65306   0.93316 
 Bq                    2.87755  -1.65306   0.93163 
 Bq                    3.       -1.65306   0.93009 
 Bq                   -3.       -1.53061   1.00829 
 Bq                   -2.87755  -1.53061   1.00673 
 Bq                   -2.7551   -1.53061   1.00517 
 Bq                   -2.63265  -1.53061   1.00361 
 Bq                   -2.5102   -1.53061   1.00206 
 Bq                   -2.38776  -1.53061   1.0005 
 Bq                   -2.26531  -1.53061   0.99894 
 Bq                   -2.14286  -1.53061   0.99739 
 Bq                   -2.02041  -1.53061   0.99583 
 Bq                   -1.89796  -1.53061   0.99428 
 Bq                   -1.77551  -1.53061   0.99272 
 Bq                   -1.65306  -1.53061   0.99117 
 Bq                   -1.53061  -1.53061   0.98962 
 Bq                   -1.40816  -1.53061   0.98806 
 Bq                   -1.28571  -1.53061   0.98651 
 Bq                   -1.16327  -1.53061   0.98496 
 Bq                   -1.04082  -1.53061   0.98341 
 Bq                   -0.91837  -1.53061   0.98185 
 Bq                   -0.79592  -1.53061   0.9803 
 Bq                   -0.67347  -1.53061   0.97875 
 Bq                   -0.55102  -1.53061   0.9772 
 Bq                   -0.42857  -1.53061   0.97565 
 Bq                   -0.30612  -1.53061   0.9741 
 Bq                   -0.18367  -1.53061   0.97256 
 Bq                   -0.06122  -1.53061   0.97101 
 Bq                    0.06122  -1.53061   0.96946 
 Bq                    0.18367  -1.53061   0.96791 
 Bq                    0.30612  -1.53061   0.96637 
 Bq                    0.42857  -1.53061   0.96482 
 Bq                    0.55102  -1.53061   0.96327 
 Bq                    0.67347  -1.53061   0.96173 
 Bq                    0.79592  -1.53061   0.96018 
 Bq                    0.91837  -1.53061   0.95864 
 Bq                    1.04082  -1.53061   0.9571 
 Bq                    1.16327  -1.53061   0.95555 
 Bq                    1.28571  -1.53061   0.95401 
 Bq                    1.40816  -1.53061   0.95247 
 Bq                    1.53061  -1.53061   0.95092 
 Bq                    1.65306  -1.53061   0.94938 
 Bq                    1.77551  -1.53061   0.94784 
 Bq                    1.89796  -1.53061   0.9463 
 Bq                    2.02041  -1.53061   0.94476 
 Bq                    2.14286  -1.53061   0.94322 
 Bq                    2.26531  -1.53061   0.94168 
 Bq                    2.38776  -1.53061   0.94014 
 Bq                    2.5102   -1.53061   0.9386 
 Bq                    2.63265  -1.53061   0.93707 
 Bq                    2.7551   -1.53061   0.93553 
 Bq                    2.87755  -1.53061   0.93399 
 Bq                    3.       -1.53061   0.93245 
 Bq                   -3.       -1.40816   1.01067 
 Bq                   -2.87755  -1.40816   1.00911 
 Bq                   -2.7551   -1.40816   1.00755 
 Bq                   -2.63265  -1.40816   1.00599 
 Bq                   -2.5102   -1.40816   1.00444 
 Bq                   -2.38776  -1.40816   1.00288 
 Bq                   -2.26531  -1.40816   1.00132 
 Bq                   -2.14286  -1.40816   0.99977 
 Bq                   -2.02041  -1.40816   0.99821 
 Bq                   -1.89796  -1.40816   0.99666 
 Bq                   -1.77551  -1.40816   0.9951 
 Bq                   -1.65306  -1.40816   0.99355 
 Bq                   -1.53061  -1.40816   0.99199 
 Bq                   -1.40816  -1.40816   0.99044 
 Bq                   -1.28571  -1.40816   0.98889 
 Bq                   -1.16327  -1.40816   0.98733 
 Bq                   -1.04082  -1.40816   0.98578 
 Bq                   -0.91837  -1.40816   0.98423 
 Bq                   -0.79592  -1.40816   0.98268 
 Bq                   -0.67347  -1.40816   0.98113 
 Bq                   -0.55102  -1.40816   0.97958 
 Bq                   -0.42857  -1.40816   0.97803 
 Bq                   -0.30612  -1.40816   0.97648 
 Bq                   -0.18367  -1.40816   0.97493 
 Bq                   -0.06122  -1.40816   0.97338 
 Bq                    0.06122  -1.40816   0.97183 
 Bq                    0.18367  -1.40816   0.97029 
 Bq                    0.30612  -1.40816   0.96874 
 Bq                    0.42857  -1.40816   0.96719 
 Bq                    0.55102  -1.40816   0.96565 
 Bq                    0.67347  -1.40816   0.9641 
 Bq                    0.79592  -1.40816   0.96256 
 Bq                    0.91837  -1.40816   0.96101 
 Bq                    1.04082  -1.40816   0.95947 
 Bq                    1.16327  -1.40816   0.95792 
 Bq                    1.28571  -1.40816   0.95638 
 Bq                    1.40816  -1.40816   0.95484 
 Bq                    1.53061  -1.40816   0.95329 
 Bq                    1.65306  -1.40816   0.95175 
 Bq                    1.77551  -1.40816   0.95021 
 Bq                    1.89796  -1.40816   0.94867 
 Bq                    2.02041  -1.40816   0.94713 
 Bq                    2.14286  -1.40816   0.94559 
 Bq                    2.26531  -1.40816   0.94405 
 Bq                    2.38776  -1.40816   0.94251 
 Bq                    2.5102   -1.40816   0.94097 
 Bq                    2.63265  -1.40816   0.93943 
 Bq                    2.7551   -1.40816   0.93789 
 Bq                    2.87755  -1.40816   0.93636 
 Bq                    3.       -1.40816   0.93482 
 Bq                   -3.       -1.28571   1.01305 
 Bq                   -2.87755  -1.28571   1.01149 
 Bq                   -2.7551   -1.28571   1.00993 
 Bq                   -2.63265  -1.28571   1.00837 
 Bq                   -2.5102   -1.28571   1.00682 
 Bq                   -2.38776  -1.28571   1.00526 
 Bq                   -2.26531  -1.28571   1.0037 
 Bq                   -2.14286  -1.28571   1.00215 
 Bq                   -2.02041  -1.28571   1.00059 
 Bq                   -1.89796  -1.28571   0.99903 
 Bq                   -1.77551  -1.28571   0.99748 
 Bq                   -1.65306  -1.28571   0.99592 
 Bq                   -1.53061  -1.28571   0.99437 
 Bq                   -1.40816  -1.28571   0.99282 
 Bq                   -1.28571  -1.28571   0.99126 
 Bq                   -1.16327  -1.28571   0.98971 
 Bq                   -1.04082  -1.28571   0.98816 
 Bq                   -0.91837  -1.28571   0.98661 
 Bq                   -0.79592  -1.28571   0.98505 
 Bq                   -0.67347  -1.28571   0.9835 
 Bq                   -0.55102  -1.28571   0.98195 
 Bq                   -0.42857  -1.28571   0.9804 
 Bq                   -0.30612  -1.28571   0.97885 
 Bq                   -0.18367  -1.28571   0.9773 
 Bq                   -0.06122  -1.28571   0.97576 
 Bq                    0.06122  -1.28571   0.97421 
 Bq                    0.18367  -1.28571   0.97266 
 Bq                    0.30612  -1.28571   0.97111 
 Bq                    0.42857  -1.28571   0.96956 
 Bq                    0.55102  -1.28571   0.96802 
 Bq                    0.67347  -1.28571   0.96647 
 Bq                    0.79592  -1.28571   0.96493 
 Bq                    0.91837  -1.28571   0.96338 
 Bq                    1.04082  -1.28571   0.96184 
 Bq                    1.16327  -1.28571   0.96029 
 Bq                    1.28571  -1.28571   0.95875 
 Bq                    1.40816  -1.28571   0.95721 
 Bq                    1.53061  -1.28571   0.95566 
 Bq                    1.65306  -1.28571   0.95412 
 Bq                    1.77551  -1.28571   0.95258 
 Bq                    1.89796  -1.28571   0.95104 
 Bq                    2.02041  -1.28571   0.9495 
 Bq                    2.14286  -1.28571   0.94796 
 Bq                    2.26531  -1.28571   0.94642 
 Bq                    2.38776  -1.28571   0.94488 
 Bq                    2.5102   -1.28571   0.94334 
 Bq                    2.63265  -1.28571   0.9418 
 Bq                    2.7551   -1.28571   0.94026 
 Bq                    2.87755  -1.28571   0.93872 
 Bq                    3.       -1.28571   0.93719 
 Bq                   -3.       -1.16327   1.01543 
 Bq                   -2.87755  -1.16327   1.01387 
 Bq                   -2.7551   -1.16327   1.01231 
 Bq                   -2.63265  -1.16327   1.01076 
 Bq                   -2.5102   -1.16327   1.0092 
 Bq                   -2.38776  -1.16327   1.00764 
 Bq                   -2.26531  -1.16327   1.00608 
 Bq                   -2.14286  -1.16327   1.00453 
 Bq                   -2.02041  -1.16327   1.00297 
 Bq                   -1.89796  -1.16327   1.00141 
 Bq                   -1.77551  -1.16327   0.99986 
 Bq                   -1.65306  -1.16327   0.9983 
 Bq                   -1.53061  -1.16327   0.99675 
 Bq                   -1.40816  -1.16327   0.99519 
 Bq                   -1.28571  -1.16327   0.99364 
 Bq                   -1.16327  -1.16327   0.99209 
 Bq                   -1.04082  -1.16327   0.99053 
 Bq                   -0.91837  -1.16327   0.98898 
 Bq                   -0.79592  -1.16327   0.98743 
 Bq                   -0.67347  -1.16327   0.98588 
 Bq                   -0.55102  -1.16327   0.98433 
 Bq                   -0.42857  -1.16327   0.98278 
 Bq                   -0.30612  -1.16327   0.98123 
 Bq                   -0.18367  -1.16327   0.97968 
 Bq                   -0.06122  -1.16327   0.97813 
 Bq                    0.06122  -1.16327   0.97658 
 Bq                    0.18367  -1.16327   0.97503 
 Bq                    0.30612  -1.16327   0.97348 
 Bq                    0.42857  -1.16327   0.97194 
 Bq                    0.55102  -1.16327   0.97039 
 Bq                    0.67347  -1.16327   0.96884 
 Bq                    0.79592  -1.16327   0.9673 
 Bq                    0.91837  -1.16327   0.96575 
 Bq                    1.04082  -1.16327   0.96421 
 Bq                    1.16327  -1.16327   0.96266 
 Bq                    1.28571  -1.16327   0.96112 
 Bq                    1.40816  -1.16327   0.95958 
 Bq                    1.53061  -1.16327   0.95803 
 Bq                    1.65306  -1.16327   0.95649 
 Bq                    1.77551  -1.16327   0.95495 
 Bq                    1.89796  -1.16327   0.95341 
 Bq                    2.02041  -1.16327   0.95186 
 Bq                    2.14286  -1.16327   0.95032 
 Bq                    2.26531  -1.16327   0.94878 
 Bq                    2.38776  -1.16327   0.94724 
 Bq                    2.5102   -1.16327   0.9457 
 Bq                    2.63265  -1.16327   0.94417 
 Bq                    2.7551   -1.16327   0.94263 
 Bq                    2.87755  -1.16327   0.94109 
 Bq                    3.       -1.16327   0.93955 
 Bq                   -3.       -1.04082   1.01782 
 Bq                   -2.87755  -1.04082   1.01626 
 Bq                   -2.7551   -1.04082   1.0147 
 Bq                   -2.63265  -1.04082   1.01314 
 Bq                   -2.5102   -1.04082   1.01158 
 Bq                   -2.38776  -1.04082   1.01002 
 Bq                   -2.26531  -1.04082   1.00846 
 Bq                   -2.14286  -1.04082   1.00691 
 Bq                   -2.02041  -1.04082   1.00535 
 Bq                   -1.89796  -1.04082   1.00379 
 Bq                   -1.77551  -1.04082   1.00224 
 Bq                   -1.65306  -1.04082   1.00068 
 Bq                   -1.53061  -1.04082   0.99913 
 Bq                   -1.40816  -1.04082   0.99757 
 Bq                   -1.28571  -1.04082   0.99602 
 Bq                   -1.16327  -1.04082   0.99446 
 Bq                   -1.04082  -1.04082   0.99291 
 Bq                   -0.91837  -1.04082   0.99136 
 Bq                   -0.79592  -1.04082   0.98981 
 Bq                   -0.67347  -1.04082   0.98826 
 Bq                   -0.55102  -1.04082   0.9867 
 Bq                   -0.42857  -1.04082   0.98515 
 Bq                   -0.30612  -1.04082   0.9836 
 Bq                   -0.18367  -1.04082   0.98205 
 Bq                   -0.06122  -1.04082   0.9805 
 Bq                    0.06122  -1.04082   0.97896 
 Bq                    0.18367  -1.04082   0.97741 
 Bq                    0.30612  -1.04082   0.97586 
 Bq                    0.42857  -1.04082   0.97431 
 Bq                    0.55102  -1.04082   0.97276 
 Bq                    0.67347  -1.04082   0.97122 
 Bq                    0.79592  -1.04082   0.96967 
 Bq                    0.91837  -1.04082   0.96813 
 Bq                    1.04082  -1.04082   0.96658 
 Bq                    1.16327  -1.04082   0.96504 
 Bq                    1.28571  -1.04082   0.96349 
 Bq                    1.40816  -1.04082   0.96195 
 Bq                    1.53061  -1.04082   0.9604 
 Bq                    1.65306  -1.04082   0.95886 
 Bq                    1.77551  -1.04082   0.95732 
 Bq                    1.89796  -1.04082   0.95578 
 Bq                    2.02041  -1.04082   0.95423 
 Bq                    2.14286  -1.04082   0.95269 
 Bq                    2.26531  -1.04082   0.95115 
 Bq                    2.38776  -1.04082   0.94961 
 Bq                    2.5102   -1.04082   0.94807 
 Bq                    2.63265  -1.04082   0.94653 
 Bq                    2.7551   -1.04082   0.94499 
 Bq                    2.87755  -1.04082   0.94346 
 Bq                    3.       -1.04082   0.94192 
 Bq                   -3.       -0.91837   1.0202 
 Bq                   -2.87755  -0.91837   1.01864 
 Bq                   -2.7551   -0.91837   1.01708 
 Bq                   -2.63265  -0.91837   1.01552 
 Bq                   -2.5102   -0.91837   1.01396 
 Bq                   -2.38776  -0.91837   1.0124 
 Bq                   -2.26531  -0.91837   1.01084 
 Bq                   -2.14286  -0.91837   1.00929 
 Bq                   -2.02041  -0.91837   1.00773 
 Bq                   -1.89796  -0.91837   1.00617 
 Bq                   -1.77551  -0.91837   1.00462 
 Bq                   -1.65306  -0.91837   1.00306 
 Bq                   -1.53061  -0.91837   1.00151 
 Bq                   -1.40816  -0.91837   0.99995 
 Bq                   -1.28571  -0.91837   0.9984 
 Bq                   -1.16327  -0.91837   0.99684 
 Bq                   -1.04082  -0.91837   0.99529 
 Bq                   -0.91837  -0.91837   0.99374 
 Bq                   -0.79592  -0.91837   0.99218 
 Bq                   -0.67347  -0.91837   0.99063 
 Bq                   -0.55102  -0.91837   0.98908 
 Bq                   -0.42857  -0.91837   0.98753 
 Bq                   -0.30612  -0.91837   0.98598 
 Bq                   -0.18367  -0.91837   0.98443 
 Bq                   -0.06122  -0.91837   0.98288 
 Bq                    0.06122  -0.91837   0.98133 
 Bq                    0.18367  -0.91837   0.97978 
 Bq                    0.30612  -0.91837   0.97823 
 Bq                    0.42857  -0.91837   0.97668 
 Bq                    0.55102  -0.91837   0.97514 
 Bq                    0.67347  -0.91837   0.97359 
 Bq                    0.79592  -0.91837   0.97204 
 Bq                    0.91837  -0.91837   0.9705 
 Bq                    1.04082  -0.91837   0.96895 
 Bq                    1.16327  -0.91837   0.96741 
 Bq                    1.28571  -0.91837   0.96586 
 Bq                    1.40816  -0.91837   0.96432 
 Bq                    1.53061  -0.91837   0.96277 
 Bq                    1.65306  -0.91837   0.96123 
 Bq                    1.77551  -0.91837   0.95969 
 Bq                    1.89796  -0.91837   0.95815 
 Bq                    2.02041  -0.91837   0.9566 
 Bq                    2.14286  -0.91837   0.95506 
 Bq                    2.26531  -0.91837   0.95352 
 Bq                    2.38776  -0.91837   0.95198 
 Bq                    2.5102   -0.91837   0.95044 
 Bq                    2.63265  -0.91837   0.9489 
 Bq                    2.7551   -0.91837   0.94736 
 Bq                    2.87755  -0.91837   0.94582 
 Bq                    3.       -0.91837   0.94428 
 Bq                   -3.       -0.79592   1.02258 
 Bq                   -2.87755  -0.79592   1.02102 
 Bq                   -2.7551   -0.79592   1.01946 
 Bq                   -2.63265  -0.79592   1.0179 
 Bq                   -2.5102   -0.79592   1.01634 
 Bq                   -2.38776  -0.79592   1.01478 
 Bq                   -2.26531  -0.79592   1.01323 
 Bq                   -2.14286  -0.79592   1.01167 
 Bq                   -2.02041  -0.79592   1.01011 
 Bq                   -1.89796  -0.79592   1.00855 
 Bq                   -1.77551  -0.79592   1.007 
 Bq                   -1.65306  -0.79592   1.00544 
 Bq                   -1.53061  -0.79592   1.00389 
 Bq                   -1.40816  -0.79592   1.00233 
 Bq                   -1.28571  -0.79592   1.00078 
 Bq                   -1.16327  -0.79592   0.99922 
 Bq                   -1.04082  -0.79592   0.99767 
 Bq                   -0.91837  -0.79592   0.99611 
 Bq                   -0.79592  -0.79592   0.99456 
 Bq                   -0.67347  -0.79592   0.99301 
 Bq                   -0.55102  -0.79592   0.99146 
 Bq                   -0.42857  -0.79592   0.98991 
 Bq                   -0.30612  -0.79592   0.98836 
 Bq                   -0.18367  -0.79592   0.9868 
 Bq                   -0.06122  -0.79592   0.98525 
 Bq                    0.06122  -0.79592   0.98371 
 Bq                    0.18367  -0.79592   0.98216 
 Bq                    0.30612  -0.79592   0.98061 
 Bq                    0.42857  -0.79592   0.97906 
 Bq                    0.55102  -0.79592   0.97751 
 Bq                    0.67347  -0.79592   0.97596 
 Bq                    0.79592  -0.79592   0.97442 
 Bq                    0.91837  -0.79592   0.97287 
 Bq                    1.04082  -0.79592   0.97132 
 Bq                    1.16327  -0.79592   0.96978 
 Bq                    1.28571  -0.79592   0.96823 
 Bq                    1.40816  -0.79592   0.96669 
 Bq                    1.53061  -0.79592   0.96515 
 Bq                    1.65306  -0.79592   0.9636 
 Bq                    1.77551  -0.79592   0.96206 
 Bq                    1.89796  -0.79592   0.96052 
 Bq                    2.02041  -0.79592   0.95897 
 Bq                    2.14286  -0.79592   0.95743 
 Bq                    2.26531  -0.79592   0.95589 
 Bq                    2.38776  -0.79592   0.95435 
 Bq                    2.5102   -0.79592   0.95281 
 Bq                    2.63265  -0.79592   0.95127 
 Bq                    2.7551   -0.79592   0.94973 
 Bq                    2.87755  -0.79592   0.94819 
 Bq                    3.       -0.79592   0.94665 
 Bq                   -3.       -0.67347   1.02497 
 Bq                   -2.87755  -0.67347   1.02341 
 Bq                   -2.7551   -0.67347   1.02185 
 Bq                   -2.63265  -0.67347   1.02029 
 Bq                   -2.5102   -0.67347   1.01873 
 Bq                   -2.38776  -0.67347   1.01717 
 Bq                   -2.26531  -0.67347   1.01561 
 Bq                   -2.14286  -0.67347   1.01405 
 Bq                   -2.02041  -0.67347   1.01249 
 Bq                   -1.89796  -0.67347   1.01093 
 Bq                   -1.77551  -0.67347   1.00938 
 Bq                   -1.65306  -0.67347   1.00782 
 Bq                   -1.53061  -0.67347   1.00627 
 Bq                   -1.40816  -0.67347   1.00471 
 Bq                   -1.28571  -0.67347   1.00316 
 Bq                   -1.16327  -0.67347   1.0016 
 Bq                   -1.04082  -0.67347   1.00005 
 Bq                   -0.91837  -0.67347   0.99849 
 Bq                   -0.79592  -0.67347   0.99694 
 Bq                   -0.67347  -0.67347   0.99539 
 Bq                   -0.55102  -0.67347   0.99384 
 Bq                   -0.42857  -0.67347   0.99228 
 Bq                   -0.30612  -0.67347   0.99073 
 Bq                   -0.18367  -0.67347   0.98918 
 Bq                   -0.06122  -0.67347   0.98763 
 Bq                    0.06122  -0.67347   0.98608 
 Bq                    0.18367  -0.67347   0.98453 
 Bq                    0.30612  -0.67347   0.98298 
 Bq                    0.42857  -0.67347   0.98143 
 Bq                    0.55102  -0.67347   0.97989 
 Bq                    0.67347  -0.67347   0.97834 
 Bq                    0.79592  -0.67347   0.97679 
 Bq                    0.91837  -0.67347   0.97524 
 Bq                    1.04082  -0.67347   0.9737 
 Bq                    1.16327  -0.67347   0.97215 
 Bq                    1.28571  -0.67347   0.97061 
 Bq                    1.40816  -0.67347   0.96906 
 Bq                    1.53061  -0.67347   0.96752 
 Bq                    1.65306  -0.67347   0.96597 
 Bq                    1.77551  -0.67347   0.96443 
 Bq                    1.89796  -0.67347   0.96289 
 Bq                    2.02041  -0.67347   0.96134 
 Bq                    2.14286  -0.67347   0.9598 
 Bq                    2.26531  -0.67347   0.95826 
 Bq                    2.38776  -0.67347   0.95672 
 Bq                    2.5102   -0.67347   0.95518 
 Bq                    2.63265  -0.67347   0.95364 
 Bq                    2.7551   -0.67347   0.9521 
 Bq                    2.87755  -0.67347   0.95056 
 Bq                    3.       -0.67347   0.94902 
 Bq                   -3.       -0.55102   1.02735 
 Bq                   -2.87755  -0.55102   1.02579 
 Bq                   -2.7551   -0.55102   1.02423 
 Bq                   -2.63265  -0.55102   1.02267 
 Bq                   -2.5102   -0.55102   1.02111 
 Bq                   -2.38776  -0.55102   1.01955 
 Bq                   -2.26531  -0.55102   1.01799 
 Bq                   -2.14286  -0.55102   1.01643 
 Bq                   -2.02041  -0.55102   1.01487 
 Bq                   -1.89796  -0.55102   1.01332 
 Bq                   -1.77551  -0.55102   1.01176 
 Bq                   -1.65306  -0.55102   1.0102 
 Bq                   -1.53061  -0.55102   1.00865 
 Bq                   -1.40816  -0.55102   1.00709 
 Bq                   -1.28571  -0.55102   1.00554 
 Bq                   -1.16327  -0.55102   1.00398 
 Bq                   -1.04082  -0.55102   1.00243 
 Bq                   -0.91837  -0.55102   1.00087 
 Bq                   -0.79592  -0.55102   0.99932 
 Bq                   -0.67347  -0.55102   0.99777 
 Bq                   -0.55102  -0.55102   0.99621 
 Bq                   -0.42857  -0.55102   0.99466 
 Bq                   -0.30612  -0.55102   0.99311 
 Bq                   -0.18367  -0.55102   0.99156 
 Bq                   -0.06122  -0.55102   0.99001 
 Bq                    0.06122  -0.55102   0.98846 
 Bq                    0.18367  -0.55102   0.98691 
 Bq                    0.30612  -0.55102   0.98536 
 Bq                    0.42857  -0.55102   0.98381 
 Bq                    0.55102  -0.55102   0.98226 
 Bq                    0.67347  -0.55102   0.98071 
 Bq                    0.79592  -0.55102   0.97917 
 Bq                    0.91837  -0.55102   0.97762 
 Bq                    1.04082  -0.55102   0.97607 
 Bq                    1.16327  -0.55102   0.97453 
 Bq                    1.28571  -0.55102   0.97298 
 Bq                    1.40816  -0.55102   0.97144 
 Bq                    1.53061  -0.55102   0.96989 
 Bq                    1.65306  -0.55102   0.96835 
 Bq                    1.77551  -0.55102   0.9668 
 Bq                    1.89796  -0.55102   0.96526 
 Bq                    2.02041  -0.55102   0.96372 
 Bq                    2.14286  -0.55102   0.96217 
 Bq                    2.26531  -0.55102   0.96063 
 Bq                    2.38776  -0.55102   0.95909 
 Bq                    2.5102   -0.55102   0.95755 
 Bq                    2.63265  -0.55102   0.95601 
 Bq                    2.7551   -0.55102   0.95447 
 Bq                    2.87755  -0.55102   0.95293 
 Bq                    3.       -0.55102   0.95139 
 Bq                   -3.       -0.42857   1.02974 
 Bq                   -2.87755  -0.42857   1.02817 
 Bq                   -2.7551   -0.42857   1.02661 
 Bq                   -2.63265  -0.42857   1.02505 
 Bq                   -2.5102   -0.42857   1.02349 
 Bq                   -2.38776  -0.42857   1.02193 
 Bq                   -2.26531  -0.42857   1.02037 
 Bq                   -2.14286  -0.42857   1.01882 
 Bq                   -2.02041  -0.42857   1.01726 
 Bq                   -1.89796  -0.42857   1.0157 
 Bq                   -1.77551  -0.42857   1.01414 
 Bq                   -1.65306  -0.42857   1.01258 
 Bq                   -1.53061  -0.42857   1.01103 
 Bq                   -1.40816  -0.42857   1.00947 
 Bq                   -1.28571  -0.42857   1.00792 
 Bq                   -1.16327  -0.42857   1.00636 
 Bq                   -1.04082  -0.42857   1.00481 
 Bq                   -0.91837  -0.42857   1.00325 
 Bq                   -0.79592  -0.42857   1.0017 
 Bq                   -0.67347  -0.42857   1.00015 
 Bq                   -0.55102  -0.42857   0.99859 
 Bq                   -0.42857  -0.42857   0.99704 
 Bq                   -0.30612  -0.42857   0.99549 
 Bq                   -0.18367  -0.42857   0.99394 
 Bq                   -0.06122  -0.42857   0.99239 
 Bq                    0.06122  -0.42857   0.99083 
 Bq                    0.18367  -0.42857   0.98928 
 Bq                    0.30612  -0.42857   0.98773 
 Bq                    0.42857  -0.42857   0.98619 
 Bq                    0.55102  -0.42857   0.98464 
 Bq                    0.67347  -0.42857   0.98309 
 Bq                    0.79592  -0.42857   0.98154 
 Bq                    0.91837  -0.42857   0.97999 
 Bq                    1.04082  -0.42857   0.97845 
 Bq                    1.16327  -0.42857   0.9769 
 Bq                    1.28571  -0.42857   0.97535 
 Bq                    1.40816  -0.42857   0.97381 
 Bq                    1.53061  -0.42857   0.97226 
 Bq                    1.65306  -0.42857   0.97072 
 Bq                    1.77551  -0.42857   0.96917 
 Bq                    1.89796  -0.42857   0.96763 
 Bq                    2.02041  -0.42857   0.96609 
 Bq                    2.14286  -0.42857   0.96454 
 Bq                    2.26531  -0.42857   0.963 
 Bq                    2.38776  -0.42857   0.96146 
 Bq                    2.5102   -0.42857   0.95992 
 Bq                    2.63265  -0.42857   0.95838 
 Bq                    2.7551   -0.42857   0.95684 
 Bq                    2.87755  -0.42857   0.9553 
 Bq                    3.       -0.42857   0.95376 
 Bq                   -3.       -0.30612   1.03212 
 Bq                   -2.87755  -0.30612   1.03056 
 Bq                   -2.7551   -0.30612   1.029 
 Bq                   -2.63265  -0.30612   1.02744 
 Bq                   -2.5102   -0.30612   1.02588 
 Bq                   -2.38776  -0.30612   1.02432 
 Bq                   -2.26531  -0.30612   1.02276 
 Bq                   -2.14286  -0.30612   1.0212 
 Bq                   -2.02041  -0.30612   1.01964 
 Bq                   -1.89796  -0.30612   1.01808 
 Bq                   -1.77551  -0.30612   1.01652 
 Bq                   -1.65306  -0.30612   1.01497 
 Bq                   -1.53061  -0.30612   1.01341 
 Bq                   -1.40816  -0.30612   1.01185 
 Bq                   -1.28571  -0.30612   1.0103 
 Bq                   -1.16327  -0.30612   1.00874 
 Bq                   -1.04082  -0.30612   1.00719 
 Bq                   -0.91837  -0.30612   1.00563 
 Bq                   -0.79592  -0.30612   1.00408 
 Bq                   -0.67347  -0.30612   1.00252 
 Bq                   -0.55102  -0.30612   1.00097 
 Bq                   -0.42857  -0.30612   0.99942 
 Bq                   -0.30612  -0.30612   0.99787 
 Bq                   -0.18367  -0.30612   0.99631 
 Bq                   -0.06122  -0.30612   0.99476 
 Bq                    0.06122  -0.30612   0.99321 
 Bq                    0.18367  -0.30612   0.99166 
 Bq                    0.30612  -0.30612   0.99011 
 Bq                    0.42857  -0.30612   0.98856 
 Bq                    0.55102  -0.30612   0.98701 
 Bq                    0.67347  -0.30612   0.98546 
 Bq                    0.79592  -0.30612   0.98392 
 Bq                    0.91837  -0.30612   0.98237 
 Bq                    1.04082  -0.30612   0.98082 
 Bq                    1.16327  -0.30612   0.97927 
 Bq                    1.28571  -0.30612   0.97773 
 Bq                    1.40816  -0.30612   0.97618 
 Bq                    1.53061  -0.30612   0.97464 
 Bq                    1.65306  -0.30612   0.97309 
 Bq                    1.77551  -0.30612   0.97155 
 Bq                    1.89796  -0.30612   0.97 
 Bq                    2.02041  -0.30612   0.96846 
 Bq                    2.14286  -0.30612   0.96692 
 Bq                    2.26531  -0.30612   0.96537 
 Bq                    2.38776  -0.30612   0.96383 
 Bq                    2.5102   -0.30612   0.96229 
 Bq                    2.63265  -0.30612   0.96075 
 Bq                    2.7551   -0.30612   0.95921 
 Bq                    2.87755  -0.30612   0.95767 
 Bq                    3.       -0.30612   0.95613 
 Bq                   -3.       -0.18367   1.03451 
 Bq                   -2.87755  -0.18367   1.03295 
 Bq                   -2.7551   -0.18367   1.03138 
 Bq                   -2.63265  -0.18367   1.02982 
 Bq                   -2.5102   -0.18367   1.02826 
 Bq                   -2.38776  -0.18367   1.0267 
 Bq                   -2.26531  -0.18367   1.02514 
 Bq                   -2.14286  -0.18367   1.02358 
 Bq                   -2.02041  -0.18367   1.02202 
 Bq                   -1.89796  -0.18367   1.02046 
 Bq                   -1.77551  -0.18367   1.01891 
 Bq                   -1.65306  -0.18367   1.01735 
 Bq                   -1.53061  -0.18367   1.01579 
 Bq                   -1.40816  -0.18367   1.01424 
 Bq                   -1.28571  -0.18367   1.01268 
 Bq                   -1.16327  -0.18367   1.01112 
 Bq                   -1.04082  -0.18367   1.00957 
 Bq                   -0.91837  -0.18367   1.00801 
 Bq                   -0.79592  -0.18367   1.00646 
 Bq                   -0.67347  -0.18367   1.0049 
 Bq                   -0.55102  -0.18367   1.00335 
 Bq                   -0.42857  -0.18367   1.0018 
 Bq                   -0.30612  -0.18367   1.00025 
 Bq                   -0.18367  -0.18367   0.99869 
 Bq                   -0.06122  -0.18367   0.99714 
 Bq                    0.06122  -0.18367   0.99559 
 Bq                    0.18367  -0.18367   0.99404 
 Bq                    0.30612  -0.18367   0.99249 
 Bq                    0.42857  -0.18367   0.99094 
 Bq                    0.55102  -0.18367   0.98939 
 Bq                    0.67347  -0.18367   0.98784 
 Bq                    0.79592  -0.18367   0.98629 
 Bq                    0.91837  -0.18367   0.98474 
 Bq                    1.04082  -0.18367   0.9832 
 Bq                    1.16327  -0.18367   0.98165 
 Bq                    1.28571  -0.18367   0.9801 
 Bq                    1.40816  -0.18367   0.97856 
 Bq                    1.53061  -0.18367   0.97701 
 Bq                    1.65306  -0.18367   0.97547 
 Bq                    1.77551  -0.18367   0.97392 
 Bq                    1.89796  -0.18367   0.97238 
 Bq                    2.02041  -0.18367   0.97083 
 Bq                    2.14286  -0.18367   0.96929 
 Bq                    2.26531  -0.18367   0.96775 
 Bq                    2.38776  -0.18367   0.9662 
 Bq                    2.5102   -0.18367   0.96466 
 Bq                    2.63265  -0.18367   0.96312 
 Bq                    2.7551   -0.18367   0.96158 
 Bq                    2.87755  -0.18367   0.96004 
 Bq                    3.       -0.18367   0.9585 
 Bq                   -3.       -0.06122   1.0369 
 Bq                   -2.87755  -0.06122   1.03533 
 Bq                   -2.7551   -0.06122   1.03377 
 Bq                   -2.63265  -0.06122   1.03221 
 Bq                   -2.5102   -0.06122   1.03065 
 Bq                   -2.38776  -0.06122   1.02909 
 Bq                   -2.26531  -0.06122   1.02753 
 Bq                   -2.14286  -0.06122   1.02597 
 Bq                   -2.02041  -0.06122   1.02441 
 Bq                   -1.89796  -0.06122   1.02285 
 Bq                   -1.77551  -0.06122   1.02129 
 Bq                   -1.65306  -0.06122   1.01973 
 Bq                   -1.53061  -0.06122   1.01817 
 Bq                   -1.40816  -0.06122   1.01662 
 Bq                   -1.28571  -0.06122   1.01506 
 Bq                   -1.16327  -0.06122   1.01351 
 Bq                   -1.04082  -0.06122   1.01195 
 Bq                   -0.91837  -0.06122   1.01039 
 Bq                   -0.79592  -0.06122   1.00884 
 Bq                   -0.67347  -0.06122   1.00729 
 Bq                   -0.55102  -0.06122   1.00573 
 Bq                   -0.42857  -0.06122   1.00418 
 Bq                   -0.30612  -0.06122   1.00262 
 Bq                   -0.18367  -0.06122   1.00107 
 Bq                   -0.06122  -0.06122   0.99952 
 Bq                    0.06122  -0.06122   0.99797 
 Bq                    0.18367  -0.06122   0.99642 
 Bq                    0.30612  -0.06122   0.99487 
 Bq                    0.42857  -0.06122   0.99332 
 Bq                    0.55102  -0.06122   0.99177 
 Bq                    0.67347  -0.06122   0.99022 
 Bq                    0.79592  -0.06122   0.98867 
 Bq                    0.91837  -0.06122   0.98712 
 Bq                    1.04082  -0.06122   0.98557 
 Bq                    1.16327  -0.06122   0.98403 
 Bq                    1.28571  -0.06122   0.98248 
 Bq                    1.40816  -0.06122   0.98093 
 Bq                    1.53061  -0.06122   0.97939 
 Bq                    1.65306  -0.06122   0.97784 
 Bq                    1.77551  -0.06122   0.97629 
 Bq                    1.89796  -0.06122   0.97475 
 Bq                    2.02041  -0.06122   0.97321 
 Bq                    2.14286  -0.06122   0.97166 
 Bq                    2.26531  -0.06122   0.97012 
 Bq                    2.38776  -0.06122   0.96858 
 Bq                    2.5102   -0.06122   0.96703 
 Bq                    2.63265  -0.06122   0.96549 
 Bq                    2.7551   -0.06122   0.96395 
 Bq                    2.87755  -0.06122   0.96241 
 Bq                    3.       -0.06122   0.96087 
 Bq                   -3.        0.06122   1.03928 
 Bq                   -2.87755   0.06122   1.03772 
 Bq                   -2.7551    0.06122   1.03616 
 Bq                   -2.63265   0.06122   1.0346 
 Bq                   -2.5102    0.06122   1.03303 
 Bq                   -2.38776   0.06122   1.03147 
 Bq                   -2.26531   0.06122   1.02991 
 Bq                   -2.14286   0.06122   1.02835 
 Bq                   -2.02041   0.06122   1.02679 
 Bq                   -1.89796   0.06122   1.02523 
 Bq                   -1.77551   0.06122   1.02367 
 Bq                   -1.65306   0.06122   1.02212 
 Bq                   -1.53061   0.06122   1.02056 
 Bq                   -1.40816   0.06122   1.019 
 Bq                   -1.28571   0.06122   1.01744 
 Bq                   -1.16327   0.06122   1.01589 
 Bq                   -1.04082   0.06122   1.01433 
 Bq                   -0.91837   0.06122   1.01278 
 Bq                   -0.79592   0.06122   1.01122 
 Bq                   -0.67347   0.06122   1.00967 
 Bq                   -0.55102   0.06122   1.00811 
 Bq                   -0.42857   0.06122   1.00656 
 Bq                   -0.30612   0.06122   1.005 
 Bq                   -0.18367   0.06122   1.00345 
 Bq                   -0.06122   0.06122   1.0019 
 Bq                    0.06122   0.06122   1.00035 
 Bq                    0.18367   0.06122   0.9988 
 Bq                    0.30612   0.06122   0.99725 
 Bq                    0.42857   0.06122   0.99569 
 Bq                    0.55102   0.06122   0.99414 
 Bq                    0.67347   0.06122   0.9926 
 Bq                    0.79592   0.06122   0.99105 
 Bq                    0.91837   0.06122   0.9895 
 Bq                    1.04082   0.06122   0.98795 
 Bq                    1.16327   0.06122   0.9864 
 Bq                    1.28571   0.06122   0.98485 
 Bq                    1.40816   0.06122   0.98331 
 Bq                    1.53061   0.06122   0.98176 
 Bq                    1.65306   0.06122   0.98021 
 Bq                    1.77551   0.06122   0.97867 
 Bq                    1.89796   0.06122   0.97712 
 Bq                    2.02041   0.06122   0.97558 
 Bq                    2.14286   0.06122   0.97404 
 Bq                    2.26531   0.06122   0.97249 
 Bq                    2.38776   0.06122   0.97095 
 Bq                    2.5102    0.06122   0.96941 
 Bq                    2.63265   0.06122   0.96786 
 Bq                    2.7551    0.06122   0.96632 
 Bq                    2.87755   0.06122   0.96478 
 Bq                    3.        0.06122   0.96324 
 Bq                   -3.        0.18367   1.04167 
 Bq                   -2.87755   0.18367   1.04011 
 Bq                   -2.7551    0.18367   1.03854 
 Bq                   -2.63265   0.18367   1.03698 
 Bq                   -2.5102    0.18367   1.03542 
 Bq                   -2.38776   0.18367   1.03386 
 Bq                   -2.26531   0.18367   1.0323 
 Bq                   -2.14286   0.18367   1.03074 
 Bq                   -2.02041   0.18367   1.02918 
 Bq                   -1.89796   0.18367   1.02762 
 Bq                   -1.77551   0.18367   1.02606 
 Bq                   -1.65306   0.18367   1.0245 
 Bq                   -1.53061   0.18367   1.02294 
 Bq                   -1.40816   0.18367   1.02138 
 Bq                   -1.28571   0.18367   1.01983 
 Bq                   -1.16327   0.18367   1.01827 
 Bq                   -1.04082   0.18367   1.01671 
 Bq                   -0.91837   0.18367   1.01516 
 Bq                   -0.79592   0.18367   1.0136 
 Bq                   -0.67347   0.18367   1.01205 
 Bq                   -0.55102   0.18367   1.01049 
 Bq                   -0.42857   0.18367   1.00894 
 Bq                   -0.30612   0.18367   1.00739 
 Bq                   -0.18367   0.18367   1.00583 
 Bq                   -0.06122   0.18367   1.00428 
 Bq                    0.06122   0.18367   1.00273 
 Bq                    0.18367   0.18367   1.00118 
 Bq                    0.30612   0.18367   0.99962 
 Bq                    0.42857   0.18367   0.99807 
 Bq                    0.55102   0.18367   0.99652 
 Bq                    0.67347   0.18367   0.99497 
 Bq                    0.79592   0.18367   0.99342 
 Bq                    0.91837   0.18367   0.99187 
 Bq                    1.04082   0.18367   0.99033 
 Bq                    1.16327   0.18367   0.98878 
 Bq                    1.28571   0.18367   0.98723 
 Bq                    1.40816   0.18367   0.98568 
 Bq                    1.53061   0.18367   0.98414 
 Bq                    1.65306   0.18367   0.98259 
 Bq                    1.77551   0.18367   0.98104 
 Bq                    1.89796   0.18367   0.9795 
 Bq                    2.02041   0.18367   0.97795 
 Bq                    2.14286   0.18367   0.97641 
 Bq                    2.26531   0.18367   0.97487 
 Bq                    2.38776   0.18367   0.97332 
 Bq                    2.5102    0.18367   0.97178 
 Bq                    2.63265   0.18367   0.97024 
 Bq                    2.7551    0.18367   0.96869 
 Bq                    2.87755   0.18367   0.96715 
 Bq                    3.        0.18367   0.96561 
 Bq                   -3.        0.30612   1.04406 
 Bq                   -2.87755   0.30612   1.0425 
 Bq                   -2.7551    0.30612   1.04093 
 Bq                   -2.63265   0.30612   1.03937 
 Bq                   -2.5102    0.30612   1.03781 
 Bq                   -2.38776   0.30612   1.03625 
 Bq                   -2.26531   0.30612   1.03468 
 Bq                   -2.14286   0.30612   1.03312 
 Bq                   -2.02041   0.30612   1.03156 
 Bq                   -1.89796   0.30612   1.03 
 Bq                   -1.77551   0.30612   1.02844 
 Bq                   -1.65306   0.30612   1.02688 
 Bq                   -1.53061   0.30612   1.02533 
 Bq                   -1.40816   0.30612   1.02377 
 Bq                   -1.28571   0.30612   1.02221 
 Bq                   -1.16327   0.30612   1.02065 
 Bq                   -1.04082   0.30612   1.0191 
 Bq                   -0.91837   0.30612   1.01754 
 Bq                   -0.79592   0.30612   1.01598 
 Bq                   -0.67347   0.30612   1.01443 
 Bq                   -0.55102   0.30612   1.01287 
 Bq                   -0.42857   0.30612   1.01132 
 Bq                   -0.30612   0.30612   1.00977 
 Bq                   -0.18367   0.30612   1.00821 
 Bq                   -0.06122   0.30612   1.00666 
 Bq                    0.06122   0.30612   1.00511 
 Bq                    0.18367   0.30612   1.00356 
 Bq                    0.30612   0.30612   1.002 
 Bq                    0.42857   0.30612   1.00045 
 Bq                    0.55102   0.30612   0.9989 
 Bq                    0.67347   0.30612   0.99735 
 Bq                    0.79592   0.30612   0.9958 
 Bq                    0.91837   0.30612   0.99425 
 Bq                    1.04082   0.30612   0.9927 
 Bq                    1.16327   0.30612   0.99115 
 Bq                    1.28571   0.30612   0.98961 
 Bq                    1.40816   0.30612   0.98806 
 Bq                    1.53061   0.30612   0.98651 
 Bq                    1.65306   0.30612   0.98497 
 Bq                    1.77551   0.30612   0.98342 
 Bq                    1.89796   0.30612   0.98187 
 Bq                    2.02041   0.30612   0.98033 
 Bq                    2.14286   0.30612   0.97878 
 Bq                    2.26531   0.30612   0.97724 
 Bq                    2.38776   0.30612   0.9757 
 Bq                    2.5102    0.30612   0.97415 
 Bq                    2.63265   0.30612   0.97261 
 Bq                    2.7551    0.30612   0.97107 
 Bq                    2.87755   0.30612   0.96952 
 Bq                    3.        0.30612   0.96798 
 Bq                   -3.        0.42857   1.04645 
 Bq                   -2.87755   0.42857   1.04488 
 Bq                   -2.7551    0.42857   1.04332 
 Bq                   -2.63265   0.42857   1.04176 
 Bq                   -2.5102    0.42857   1.04019 
 Bq                   -2.38776   0.42857   1.03863 
 Bq                   -2.26531   0.42857   1.03707 
 Bq                   -2.14286   0.42857   1.03551 
 Bq                   -2.02041   0.42857   1.03395 
 Bq                   -1.89796   0.42857   1.03239 
 Bq                   -1.77551   0.42857   1.03083 
 Bq                   -1.65306   0.42857   1.02927 
 Bq                   -1.53061   0.42857   1.02771 
 Bq                   -1.40816   0.42857   1.02615 
 Bq                   -1.28571   0.42857   1.02459 
 Bq                   -1.16327   0.42857   1.02304 
 Bq                   -1.04082   0.42857   1.02148 
 Bq                   -0.91837   0.42857   1.01992 
 Bq                   -0.79592   0.42857   1.01837 
 Bq                   -0.67347   0.42857   1.01681 
 Bq                   -0.55102   0.42857   1.01526 
 Bq                   -0.42857   0.42857   1.0137 
 Bq                   -0.30612   0.42857   1.01215 
 Bq                   -0.18367   0.42857   1.01059 
 Bq                   -0.06122   0.42857   1.00904 
 Bq                    0.06122   0.42857   1.00749 
 Bq                    0.18367   0.42857   1.00594 
 Bq                    0.30612   0.42857   1.00438 
 Bq                    0.42857   0.42857   1.00283 
 Bq                    0.55102   0.42857   1.00128 
 Bq                    0.67347   0.42857   0.99973 
 Bq                    0.79592   0.42857   0.99818 
 Bq                    0.91837   0.42857   0.99663 
 Bq                    1.04082   0.42857   0.99508 
 Bq                    1.16327   0.42857   0.99353 
 Bq                    1.28571   0.42857   0.99198 
 Bq                    1.40816   0.42857   0.99044 
 Bq                    1.53061   0.42857   0.98889 
 Bq                    1.65306   0.42857   0.98734 
 Bq                    1.77551   0.42857   0.9858 
 Bq                    1.89796   0.42857   0.98425 
 Bq                    2.02041   0.42857   0.9827 
 Bq                    2.14286   0.42857   0.98116 
 Bq                    2.26531   0.42857   0.97961 
 Bq                    2.38776   0.42857   0.97807 
 Bq                    2.5102    0.42857   0.97653 
[...]
 351604\Bq,0,1.7755102,1.7755102,1.01196594\Bq,0,1.89795918,1.7755102,1
 .01041629\Bq,0,2.02040816,1.7755102,1.0088671\Bq,0,2.14285714,1.775510
 2,1.00731837\Bq,0,2.26530612,1.7755102,1.0057701\Bq,0,2.3877551,1.7755
 102,1.00422228\Bq,0,2.51020408,1.7755102,1.00267492\Bq,0,2.63265306,1.
 7755102,1.00112802\Bq,0,2.75510204,1.7755102,0.99958157\Bq,0,2.8775510
 2,1.7755102,0.99803558\Bq,0,3.,1.7755102,0.99649005\Bq,0,-3.,1.8979591
 8,1.07515377\Bq,0,-2.87755102,1.89795918,1.07358597\Bq,0,-2.75510204,1
 .89795918,1.07201862\Bq,0,-2.63265306,1.89795918,1.07045173\Bq,0,-2.51
 020408,1.89795918,1.0688853\Bq,0,-2.3877551,1.89795918,1.06731932\Bq,0
 ,-2.26530612,1.89795918,1.0657538\Bq,0,-2.14285714,1.89795918,1.064188
 74\Bq,0,-2.02040816,1.89795918,1.06262414\Bq,0,-1.89795918,1.89795918,
 1.06105999\Bq,0,-1.7755102,1.89795918,1.0594963\Bq,0,-1.65306122,1.897
 95918,1.05793307\Bq,0,-1.53061224,1.89795918,1.05637029\Bq,0,-1.408163
 27,1.89795918,1.05480798\Bq,0,-1.28571429,1.89795918,1.05324611\Bq,0,-
 1.16326531,1.89795918,1.05168471\Bq,0,-1.04081633,1.89795918,1.0501237
 6\Bq,0,-0.91836735,1.89795918,1.04856327\Bq,0,-0.79591837,1.89795918,1
 .04700324\Bq,0,-0.67346939,1.89795918,1.04544367\Bq,0,-0.55102041,1.89
 795918,1.04388455\Bq,0,-0.42857143,1.89795918,1.04232589\Bq,0,-0.30612
 245,1.89795918,1.04076768\Bq,0,-0.18367347,1.89795918,1.03920994\Bq,0,
 -0.06122449,1.89795918,1.03765265\Bq,0,0.06122449,1.89795918,1.0360958
 2\Bq,0,0.18367347,1.89795918,1.03453944\Bq,0,0.30612245,1.89795918,1.0
 3298352\Bq,0,0.42857143,1.89795918,1.03142806\Bq,0,0.55102041,1.897959
 18,1.02987306\Bq,0,0.67346939,1.89795918,1.02831851\Bq,0,0.79591837,1.
 89795918,1.02676442\Bq,0,0.91836735,1.89795918,1.02521079\Bq,0,1.04081
 633,1.89795918,1.02365762\Bq,0,1.16326531,1.89795918,1.0221049\Bq,0,1.
 28571429,1.89795918,1.02055264\Bq,0,1.40816327,1.89795918,1.01900084\B
 q,0,1.53061224,1.89795918,1.01744949\Bq,0,1.65306122,1.89795918,1.0158
 986\Bq,0,1.7755102,1.89795918,1.01434817\Bq,0,1.89795918,1.89795918,1.
 01279819\Bq,0,2.02040816,1.89795918,1.01124868\Bq,0,2.14285714,1.89795
 918,1.00969962\Bq,0,2.26530612,1.89795918,1.00815101\Bq,0,2.3877551,1.
 89795918,1.00660287\Bq,0,2.51020408,1.89795918,1.00505518\Bq,0,2.63265
 306,1.89795918,1.00350795\Bq,0,2.75510204,1.89795918,1.00196117\Bq,0,2
 .87755102,1.89795918,1.00041486\Bq,0,3.,1.89795918,0.998869\Bq,0,-3.,2
 .02040816,1.07754934\Bq,0,-2.87755102,2.02040816,1.07598121\Bq,0,-2.75
 510204,2.02040816,1.07441353\Bq,0,-2.63265306,2.02040816,1.07284631\Bq
 ,0,-2.51020408,2.02040816,1.07127955\Bq,0,-2.3877551,2.02040816,1.0697
 1325\Bq,0,-2.26530612,2.02040816,1.0681474\Bq,0,-2.14285714,2.02040816
 ,1.06658201\Bq,0,-2.02040816,2.02040816,1.06501708\Bq,0,-1.89795918,2.
 02040816,1.0634526\Bq,0,-1.7755102,2.02040816,1.06188859\Bq,0,-1.65306
 122,2.02040816,1.06032502\Bq,0,-1.53061224,2.02040816,1.05876192\Bq,0,
 -1.40816327,2.02040816,1.05719927\Bq,0,-1.28571429,2.02040816,1.055637
 08\Bq,0,-1.16326531,2.02040816,1.05407535\Bq,0,-1.04081633,2.02040816,
 1.05251408\Bq,0,-0.91836735,2.02040816,1.05095326\Bq,0,-0.79591837,2.0
 2040816,1.0493929\Bq,0,-0.67346939,2.02040816,1.04783299\Bq,0,-0.55102
 041,2.02040816,1.04627355\Bq,0,-0.42857143,2.02040816,1.04471456\Bq,0,
 -0.30612245,2.02040816,1.04315602\Bq,0,-0.18367347,2.02040816,1.041597
 95\Bq,0,-0.06122449,2.02040816,1.04004033\Bq,0,0.06122449,2.02040816,1
 .03848317\Bq,0,0.18367347,2.02040816,1.03692647\Bq,0,0.30612245,2.0204
 0816,1.03537022\Bq,0,0.42857143,2.02040816,1.03381443\Bq,0,0.55102041,
 2.02040816,1.0322591\Bq,0,0.67346939,2.02040816,1.03070422\Bq,0,0.7959
 1837,2.02040816,1.0291498\Bq,0,0.91836735,2.02040816,1.02759584\Bq,0,1
 .04081633,2.02040816,1.02604234\Bq,0,1.16326531,2.02040816,1.02448929\
 Bq,0,1.28571429,2.02040816,1.0229367\Bq,0,1.40816327,2.02040816,1.0213
 8457\Bq,0,1.53061224,2.02040816,1.0198329\Bq,0,1.65306122,2.02040816,1
 .01828168\Bq,0,1.7755102,2.02040816,1.01673092\Bq,0,1.89795918,2.02040
 816,1.01518062\Bq,0,2.02040816,2.02040816,1.01363077\Bq,0,2.14285714,2
 .02040816,1.01208138\Bq,0,2.26530612,2.02040816,1.01053245\Bq,0,2.3877
 551,2.02040816,1.00898397\Bq,0,2.51020408,2.02040816,1.00743596\Bq,0,2
 .63265306,2.02040816,1.0058884\Bq,0,2.75510204,2.02040816,1.00434129\B
 q,0,2.87755102,2.02040816,1.00279465\Bq,0,3.,2.02040816,1.00124846\Bq,
 0,-3.,2.14285714,1.07994543\Bq,0,-2.87755102,2.14285714,1.07837697\Bq,
 0,-2.75510204,2.14285714,1.07680897\Bq,0,-2.63265306,2.14285714,1.0752
 4142\Bq,0,-2.51020408,2.14285714,1.07367433\Bq,0,-2.3877551,2.14285714
 ,1.0721077\Bq,0,-2.26530612,2.14285714,1.07054152\Bq,0,-2.14285714,2.1
 4285714,1.0689758\Bq,0,-2.02040816,2.14285714,1.06741054\Bq,0,-1.89795
 918,2.14285714,1.06584573\Bq,0,-1.7755102,2.14285714,1.06428139\Bq,0,-
 1.65306122,2.14285714,1.0627175\Bq,0,-1.53061224,2.14285714,1.06115406
 \Bq,0,-1.40816327,2.14285714,1.05959109\Bq,0,-1.28571429,2.14285714,1.
 05802857\Bq,0,-1.16326531,2.14285714,1.05646651\Bq,0,-1.04081633,2.142
 85714,1.05490491\Bq,0,-0.91836735,2.14285714,1.05334376\Bq,0,-0.795918
 37,2.14285714,1.05178307\Bq,0,-0.67346939,2.14285714,1.05022284\Bq,0,-
 0.55102041,2.14285714,1.04866306\Bq,0,-0.42857143,2.14285714,1.0471037
 4\Bq,0,-0.30612245,2.14285714,1.04554488\Bq,0,-0.18367347,2.14285714,1
 .04398648\Bq,0,-0.06122449,2.14285714,1.04242853\Bq,0,0.06122449,2.142
 85714,1.04087104\Bq,0,0.18367347,2.14285714,1.03931401\Bq,0,0.30612245
 ,2.14285714,1.03775743\Bq,0,0.42857143,2.14285714,1.03620131\Bq,0,0.55
 102041,2.14285714,1.03464565\Bq,0,0.67346939,2.14285714,1.03309045\Bq,
 0,0.79591837,2.14285714,1.0315357\Bq,0,0.91836735,2.14285714,1.0299814
 1\Bq,0,1.04081633,2.14285714,1.02842758\Bq,0,1.16326531,2.14285714,1.0
 2687421\Bq,0,1.28571429,2.14285714,1.02532129\Bq,0,1.40816327,2.142857
 14,1.02376883\Bq,0,1.53061224,2.14285714,1.02221682\Bq,0,1.65306122,2.
 14285714,1.02066528\Bq,0,1.7755102,2.14285714,1.01911419\Bq,0,1.897959
 18,2.14285714,1.01756356\Bq,0,2.02040816,2.14285714,1.01601338\Bq,0,2.
 14285714,2.14285714,1.01446366\Bq,0,2.26530612,2.14285714,1.0129144\Bq
 ,0,2.3877551,2.14285714,1.0113656\Bq,0,2.51020408,2.14285714,1.0098172
 5\Bq,0,2.63265306,2.14285714,1.00826936\Bq,0,2.75510204,2.14285714,1.0
 0672193\Bq,0,2.87755102,2.14285714,1.00517496\Bq,0,3.,2.14285714,1.003
 62844\Bq,0,-3.,2.26530612,1.08234204\Bq,0,-2.87755102,2.26530612,1.080
 77325\Bq,0,-2.75510204,2.26530612,1.07920492\Bq,0,-2.63265306,2.265306
 12,1.07763704\Bq,0,-2.51020408,2.26530612,1.07606962\Bq,0,-2.3877551,2
 .26530612,1.07450266\Bq,0,-2.26530612,2.26530612,1.07293616\Bq,0,-2.14
 285714,2.26530612,1.07137011\Bq,0,-2.02040816,2.26530612,1.06980452\Bq
 ,0,-1.89795918,2.26530612,1.06823939\Bq,0,-1.7755102,2.26530612,1.0666
 7471\Bq,0,-1.65306122,2.26530612,1.06511049\Bq,0,-1.53061224,2.2653061
 2,1.06354673\Bq,0,-1.40816327,2.26530612,1.06198342\Bq,0,-1.28571429,2
 .26530612,1.06042058\Bq,0,-1.16326531,2.26530612,1.05885819\Bq,0,-1.04
 081633,2.26530612,1.05729625\Bq,0,-0.91836735,2.26530612,1.05573478\Bq
 ,0,-0.79591837,2.26530612,1.05417376\Bq,0,-0.67346939,2.26530612,1.052
 6132\Bq,0,-0.55102041,2.26530612,1.05105309\Bq,0,-0.42857143,2.2653061
 2,1.04949345\Bq,0,-0.30612245,2.26530612,1.04793426\Bq,0,-0.18367347,2
 .26530612,1.04637552\Bq,0,-0.06122449,2.26530612,1.04481725\Bq,0,0.061
 22449,2.26530612,1.04325943\Bq,0,0.18367347,2.26530612,1.04170207\Bq,0
 ,0.30612245,2.26530612,1.04014516\Bq,0,0.42857143,2.26530612,1.0385887
 2\Bq,0,0.55102041,2.26530612,1.03703273\Bq,0,0.67346939,2.26530612,1.0
 354772\Bq,0,0.79591837,2.26530612,1.03392212\Bq,0,0.91836735,2.2653061
 2,1.0323675\Bq,0,1.04081633,2.26530612,1.03081334\Bq,0,1.16326531,2.26
 530612,1.02925964\Bq,0,1.28571429,2.26530612,1.02770639\Bq,0,1.4081632
 7,2.26530612,1.0261536\Bq,0,1.53061224,2.26530612,1.02460127\Bq,0,1.65
 306122,2.26530612,1.02304939\Bq,0,1.7755102,2.26530612,1.02149797\Bq,0
 ,1.89795918,2.26530612,1.01994701\Bq,0,2.02040816,2.26530612,1.0183965
 1\Bq,0,2.14285714,2.26530612,1.01684646\Bq,0,2.26530612,2.26530612,1.0
 1529687\Bq,0,2.3877551,2.26530612,1.01374774\Bq,0,2.51020408,2.2653061
 2,1.01219907\Bq,0,2.63265306,2.26530612,1.01065085\Bq,0,2.75510204,2.2
 6530612,1.00910309\Bq,0,2.87755102,2.26530612,1.00755578\Bq,0,3.,2.265
 30612,1.00600894\Bq,0,-3.,2.3877551,1.08473917\Bq,0,-2.87755102,2.3877
 551,1.08317005\Bq,0,-2.75510204,2.3877551,1.08160139\Bq,0,-2.63265306,
 2.3877551,1.08003318\Bq,0,-2.51020408,2.3877551,1.07846544\Bq,0,-2.387
 7551,2.3877551,1.07689814\Bq,0,-2.26530612,2.3877551,1.07533131\Bq,0,-
 2.14285714,2.3877551,1.07376494\Bq,0,-2.02040816,2.3877551,1.07219902\
 Bq,0,-1.89795918,2.3877551,1.07063355\Bq,0,-1.7755102,2.3877551,1.0690
 6855\Bq,0,-1.65306122,2.3877551,1.067504\Bq,0,-1.53061224,2.3877551,1.
 06593991\Bq,0,-1.40816327,2.3877551,1.06437628\Bq,0,-1.28571429,2.3877
 551,1.0628131\Bq,0,-1.16326531,2.3877551,1.06125038\Bq,0,-1.04081633,2
 .3877551,1.05968812\Bq,0,-0.91836735,2.3877551,1.05812632\Bq,0,-0.7959
 1837,2.3877551,1.05656497\Bq,0,-0.67346939,2.3877551,1.05500408\Bq,0,-
 0.55102041,2.3877551,1.05344365\Bq,0,-0.42857143,2.3877551,1.05188367\
 Bq,0,-0.30612245,2.3877551,1.05032415\Bq,0,-0.18367347,2.3877551,1.048
 76509\Bq,0,-0.06122449,2.3877551,1.04720649\Bq,0,0.06122449,2.3877551,
 1.04564834\Bq,0,0.18367347,2.3877551,1.04409065\Bq,0,0.30612245,2.3877
 551,1.04253342\Bq,0,0.42857143,2.3877551,1.04097664\Bq,0,0.55102041,2.
 3877551,1.03942032\Bq,0,0.67346939,2.3877551,1.03786446\Bq,0,0.7959183
 7,2.3877551,1.03630906\Bq,0,0.91836735,2.3877551,1.03475411\Bq,0,1.040
 81633,2.3877551,1.03319962\Bq,0,1.16326531,2.3877551,1.03164559\Bq,0,1
 .28571429,2.3877551,1.03009201\Bq,0,1.40816327,2.3877551,1.02853889\Bq
 ,0,1.53061224,2.3877551,1.02698623\Bq,0,1.65306122,2.3877551,1.0254340
 3\Bq,0,1.7755102,2.3877551,1.02388228\Bq,0,1.89795918,2.3877551,1.0223
 3099\Bq,0,2.02040816,2.3877551,1.02078016\Bq,0,2.14285714,2.3877551,1.
 01922978\Bq,0,2.26530612,2.3877551,1.01767986\Bq,0,2.3877551,2.3877551
 ,1.0161304\Bq,0,2.51020408,2.3877551,1.0145814\Bq,0,2.63265306,2.38775
 51,1.01303285\Bq,0,2.75510204,2.3877551,1.01148476\Bq,0,2.87755102,2.3
 877551,1.00993713\Bq,0,3.,2.3877551,1.00838996\Bq,0,-3.,2.51020408,1.0
 8713682\Bq,0,-2.87755102,2.51020408,1.08556737\Bq,0,-2.75510204,2.5102
 0408,1.08399838\Bq,0,-2.63265306,2.51020408,1.08242984\Bq,0,-2.5102040
 8,2.51020408,1.08086177\Bq,0,-2.3877551,2.51020408,1.07929415\Bq,0,-2.
 26530612,2.51020408,1.07772699\Bq,0,-2.14285714,2.51020408,1.07616028\
 Bq,0,-2.02040816,2.51020408,1.07459403\Bq,0,-1.89795918,2.51020408,1.0
 7302824\Bq,0,-1.7755102,2.51020408,1.07146291\Bq,0,-1.65306122,2.51020
 408,1.06989803\Bq,0,-1.53061224,2.51020408,1.06833361\Bq,0,-1.40816327
 ,2.51020408,1.06676965\Bq,0,-1.28571429,2.51020408,1.06520615\Bq,0,-1.
 16326531,2.51020408,1.0636431\Bq,0,-1.04081633,2.51020408,1.06208051\B
 q,0,-0.91836735,2.51020408,1.06051837\Bq,0,-0.79591837,2.51020408,1.05
 89567\Bq,0,-0.67346939,2.51020408,1.05739548\Bq,0,-0.55102041,2.510204
 08,1.05583472\Bq,0,-0.42857143,2.51020408,1.05427441\Bq,0,-0.30612245,
 2.51020408,1.05271457\Bq,0,-0.18367347,2.51020408,1.05115518\Bq,0,-0.0
 6122449,2.51020408,1.04959624\Bq,0,0.06122449,2.51020408,1.04803777\Bq
 ,0,0.18367347,2.51020408,1.04647975\Bq,0,0.30612245,2.51020408,1.04492
 219\Bq,0,0.42857143,2.51020408,1.04336508\Bq,0,0.55102041,2.51020408,1
 .04180843\Bq,0,0.67346939,2.51020408,1.04025224\Bq,0,0.79591837,2.5102
 0408,1.03869651\Bq,0,0.91836735,2.51020408,1.03714124\Bq,0,1.04081633,
 2.51020408,1.03558642\Bq,0,1.16326531,2.51020408,1.03403206\Bq,0,1.285
 71429,2.51020408,1.03247815\Bq,0,1.40816327,2.51020408,1.0309247\Bq,0,
 1.53061224,2.51020408,1.02937171\Bq,0,1.65306122,2.51020408,1.02781918
 \Bq,0,1.7755102,2.51020408,1.02626711\Bq,0,1.89795918,2.51020408,1.024
 71549\Bq,0,2.02040816,2.51020408,1.02316433\Bq,0,2.14285714,2.51020408
 ,1.02161362\Bq,0,2.26530612,2.51020408,1.02006337\Bq,0,2.3877551,2.510
 20408,1.01851358\Bq,0,2.51020408,2.51020408,1.01696425\Bq,0,2.63265306
 ,2.51020408,1.01541538\Bq,0,2.75510204,2.51020408,1.01386696\Bq,0,2.87
 755102,2.51020408,1.012319\Bq,0,3.,2.51020408,1.01077149\Bq,0,-3.,2.63
 265306,1.08953498\Bq,0,-2.87755102,2.63265306,1.0879652\Bq,0,-2.755102
 04,2.63265306,1.08639589\Bq,0,-2.63265306,2.63265306,1.08482702\Bq,0,-
 2.51020408,2.63265306,1.08325862\Bq,0,-2.3877551,2.63265306,1.08169067
 \Bq,0,-2.26530612,2.63265306,1.08012318\Bq,0,-2.14285714,2.63265306,1.
 07855614\Bq,0,-2.02040816,2.63265306,1.07698957\Bq,0,-1.89795918,2.632
 65306,1.07542345\Bq,0,-1.7755102,2.63265306,1.07385779\Bq,0,-1.6530612
 2,2.63265306,1.07229258\Bq,0,-1.53061224,2.63265306,1.07072783\Bq,0,-1
 .40816327,2.63265306,1.06916354\Bq,0,-1.28571429,2.63265306,1.06759971
 \Bq,0,-1.16326531,2.63265306,1.06603633\Bq,0,-1.04081633,2.63265306,1.
 06447341\Bq,0,-0.91836735,2.63265306,1.06291095\Bq,0,-0.79591837,2.632
 65306,1.06134895\Bq,0,-0.67346939,2.63265306,1.0597874\Bq,0,-0.5510204
 1,2.63265306,1.05822631\Bq,0,-0.42857143,2.63265306,1.05666567\Bq,0,-0
 .30612245,2.63265306,1.0551055\Bq,0,-0.18367347,2.63265306,1.05354578\
 Bq,0,-0.06122449,2.63265306,1.05198652\Bq,0,0.06122449,2.63265306,1.05
 042771\Bq,0,0.18367347,2.63265306,1.04886937\Bq,0,0.30612245,2.6326530
 6,1.04731147\Bq,0,0.42857143,2.63265306,1.04575404\Bq,0,0.55102041,2.6
 3265306,1.04419707\Bq,0,0.67346939,2.63265306,1.04264055\Bq,0,0.795918
 37,2.63265306,1.04108448\Bq,0,0.91836735,2.63265306,1.03952888\Bq,0,1.
 04081633,2.63265306,1.03797373\Bq,0,1.16326531,2.63265306,1.03641904\B
 q,0,1.28571429,2.63265306,1.03486481\Bq,0,1.40816327,2.63265306,1.0333
 1103\Bq,0,1.53061224,2.63265306,1.03175771\Bq,0,1.65306122,2.63265306,
 1.03020485\Bq,0,1.7755102,2.63265306,1.02865245\Bq,0,1.89795918,2.6326
 5306,1.0271005\Bq,0,2.02040816,2.63265306,1.02554901\Bq,0,2.14285714,2
 .63265306,1.02399798\Bq,0,2.26530612,2.63265306,1.0224474\Bq,0,2.38775
 51,2.63265306,1.02089728\Bq,0,2.51020408,2.63265306,1.01934762\Bq,0,2.
 63265306,2.63265306,1.01779842\Bq,0,2.75510204,2.63265306,1.01624967\B
 q,0,2.87755102,2.63265306,1.01470138\Bq,0,3.,2.63265306,1.01315355\Bq,
 0,-3.,2.75510204,1.09193367\Bq,0,-2.87755102,2.75510204,1.09036356\Bq,
 0,-2.75510204,2.75510204,1.08879391\Bq,0,-2.63265306,2.75510204,1.0872
 2472\Bq,0,-2.51020408,2.75510204,1.08565599\Bq,0,-2.3877551,2.75510204
 ,1.08408771\Bq,0,-2.26530612,2.75510204,1.08251989\Bq,0,-2.14285714,2.
 75510204,1.08095253\Bq,0,-2.02040816,2.75510204,1.07938562\Bq,0,-1.897
 95918,2.75510204,1.07781917\Bq,0,-1.7755102,2.75510204,1.07625318\Bq,0
 ,-1.65306122,2.75510204,1.07468765\Bq,0,-1.53061224,2.75510204,1.07312
 257\Bq,0,-1.40816327,2.75510204,1.07155795\Bq,0,-1.28571429,2.75510204
 ,1.06999379\Bq,0,-1.16326531,2.75510204,1.06843009\Bq,0,-1.04081633,2.
 75510204,1.06686684\Bq,0,-0.91836735,2.75510204,1.06530405\Bq,0,-0.795
 91837,2.75510204,1.06374171\Bq,0,-0.67346939,2.75510204,1.06217984\Bq,
 0,-0.55102041,2.75510204,1.06061842\Bq,0,-0.42857143,2.75510204,1.0590
 5746\Bq,0,-0.30612245,2.75510204,1.05749695\Bq,0,-0.18367347,2.7551020
 4,1.0559369\Bq,0,-0.06122449,2.75510204,1.05437731\Bq,0,0.06122449,2.7
 5510204,1.05281818\Bq,0,0.18367347,2.75510204,1.0512595\Bq,0,0.3061224
 5,2.75510204,1.04970128\Bq,0,0.42857143,2.75510204,1.04814352\Bq,0,0.5
 5102041,2.75510204,1.04658622\Bq,0,0.67346939,2.75510204,1.04502937\Bq
 ,0,0.79591837,2.75510204,1.04347298\Bq,0,0.91836735,2.75510204,1.04191
 704\Bq,0,1.04081633,2.75510204,1.04036157\Bq,0,1.16326531,2.75510204,1
 .03880655\Bq,0,1.28571429,2.75510204,1.03725199\Bq,0,1.40816327,2.7551
 0204,1.03569788\Bq,0,1.53061224,2.75510204,1.03414423\Bq,0,1.65306122,
 2.75510204,1.03259104\Bq,0,1.7755102,2.75510204,1.03103831\Bq,0,1.8979
 5918,2.75510204,1.02948604\Bq,0,2.02040816,2.75510204,1.02793422\Bq,0,
 2.14285714,2.75510204,1.02638285\Bq,0,2.26530612,2.75510204,1.02483195
 \Bq,0,2.3877551,2.75510204,1.0232815\Bq,0,2.51020408,2.75510204,1.0217
 3151\Bq,0,2.63265306,2.75510204,1.02018198\Bq,0,2.75510204,2.75510204,
 1.0186329\Bq,0,2.87755102,2.75510204,1.01708428\Bq,0,3.,2.75510204,1.0
 1553612\Bq,0,-3.,2.87755102,1.09433287\Bq,0,-2.87755102,2.87755102,1.0
 9276243\Bq,0,-2.75510204,2.87755102,1.09119246\Bq,0,-2.63265306,2.8775
 5102,1.08962294\Bq,0,-2.51020408,2.87755102,1.08805387\Bq,0,-2.3877551
 ,2.87755102,1.08648527\Bq,0,-2.26530612,2.87755102,1.08491712\Bq,0,-2.
 14285714,2.87755102,1.08334943\Bq,0,-2.02040816,2.87755102,1.0817822\B
 q,0,-1.89795918,2.87755102,1.08021542\Bq,0,-1.7755102,2.87755102,1.078
 6491\Bq,0,-1.65306122,2.87755102,1.07708324\Bq,0,-1.53061224,2.8775510
 2,1.07551783\Bq,0,-1.40816327,2.87755102,1.07395288\Bq,0,-1.28571429,2
 .87755102,1.07238839\Bq,0,-1.16326531,2.87755102,1.07082436\Bq,0,-1.04
 081633,2.87755102,1.06926078\Bq,0,-0.91836735,2.87755102,1.06769766\Bq
 ,0,-0.79591837,2.87755102,1.066135\Bq,0,-0.67346939,2.87755102,1.06457
 279\Bq,0,-0.55102041,2.87755102,1.06301104\Bq,0,-0.42857143,2.87755102
 ,1.06144975\Bq,0,-0.30612245,2.87755102,1.05988892\Bq,0,-0.18367347,2.
 87755102,1.05832854\Bq,0,-0.06122449,2.87755102,1.05676862\Bq,0,0.0612
 2449,2.87755102,1.05520916\Bq,0,0.18367347,2.87755102,1.05365016\Bq,0,
 0.30612245,2.87755102,1.05209161\Bq,0,0.42857143,2.87755102,1.05053352
 \Bq,0,0.55102041,2.87755102,1.04897588\Bq,0,0.67346939,2.87755102,1.04
 741871\Bq,0,0.79591837,2.87755102,1.04586199\Bq,0,0.91836735,2.8775510
 2,1.04430573\Bq,0,1.04081633,2.87755102,1.04274992\Bq,0,1.16326531,2.8
 7755102,1.04119457\Bq,0,1.28571429,2.87755102,1.03963968\Bq,0,1.408163
 27,2.87755102,1.03808525\Bq,0,1.53061224,2.87755102,1.03653127\Bq,0,1.
 65306122,2.87755102,1.03497775\Bq,0,1.7755102,2.87755102,1.03342469\Bq
 ,0,1.89795918,2.87755102,1.03187209\Bq,0,2.02040816,2.87755102,1.03031
 994\Bq,0,2.14285714,2.87755102,1.02876825\Bq,0,2.26530612,2.87755102,1
 .02721702\Bq,0,2.3877551,2.87755102,1.02566624\Bq,0,2.51020408,2.87755
 102,1.02411592\Bq,0,2.63265306,2.87755102,1.02256606\Bq,0,2.75510204,2
 .87755102,1.02101665\Bq,0,2.87755102,2.87755102,1.01946771\Bq,0,3.,2.8
 7755102,1.01791922\Bq,0,-3.,3.,1.09673259\Bq,0,-2.87755102,3.,1.095161
 83\Bq,0,-2.75510204,3.,1.09359152\Bq,0,-2.63265306,3.,1.09202167\Bq,0,
 -2.51020408,3.,1.09045228\Bq,0,-2.3877551,3.,1.08888335\Bq,0,-2.265306
 12,3.,1.08731487\Bq,0,-2.14285714,3.,1.08574685\Bq,0,-2.02040816,3.,1.
 08417929\Bq,0,-1.89795918,3.,1.08261218\Bq,0,-1.7755102,3.,1.08104553\
 Bq,0,-1.65306122,3.,1.07947934\Bq,0,-1.53061224,3.,1.07791361\Bq,0,-1.
 40816327,3.,1.07634833\Bq,0,-1.28571429,3.,1.07478351\Bq,0,-1.16326531
 ,3.,1.07321915\Bq,0,-1.04081633,3.,1.07165524\Bq,0,-0.91836735,3.,1.07
 009179\Bq,0,-0.79591837,3.,1.0685288\Bq,0,-0.67346939,3.,1.06696627\Bq
 ,0,-0.55102041,3.,1.06540419\Bq,0,-0.42857143,3.,1.06384257\Bq,0,-0.30
 612245,3.,1.06228141\Bq,0,-0.18367347,3.,1.0607207\Bq,0,-0.06122449,3.
 ,1.05916046\Bq,0,0.06122449,3.,1.05760066\Bq,0,0.18367347,3.,1.0560413
 3\Bq,0,0.30612245,3.,1.05448245\Bq,0,0.42857143,3.,1.05292403\Bq,0,0.5
 5102041,3.,1.05136607\Bq,0,0.67346939,3.,1.04980857\Bq,0,0.79591837,3.
 ,1.04825152\Bq,0,0.91836735,3.,1.04669493\Bq,0,1.04081633,3.,1.0451387
 9\Bq,0,1.16326531,3.,1.04358312\Bq,0,1.28571429,3.,1.0420279\Bq,0,1.40
 816327,3.,1.04047314\Bq,0,1.53061224,3.,1.03891883\Bq,0,1.65306122,3.,
 1.03736498\Bq,0,1.7755102,3.,1.03581159\Bq,0,1.89795918,3.,1.03425866\
 Bq,0,2.02040816,3.,1.03270618\Bq,0,2.14285714,3.,1.03115416\Bq,0,2.265
 30612,3.,1.0296026\Bq,0,2.3877551,3.,1.0280515\Bq,0,2.51020408,3.,1.02
 650085\Bq,0,2.63265306,3.,1.02495066\Bq,0,2.75510204,3.,1.02340092\Bq,
 0,2.87755102,3.,1.02185165\Bq,0,3.,3.,1.02030283\\Version=EM64L-G09Rev
 D.01\HF=-232.2482722\RMSD=9.866e-10\Dipole=-0.000044,-0.0000215,0.0000
 86\Quadrupole=1.760169,1.7605185,-3.5206874,0.0014312,-0.0670358,0.102
 6484\PG=C01 [X(C6H6)]\\@


 PERICLES, SOPHOCLES,
 PELOPONESIAN WAR,
 FRENCH VERBS, LATIN VERBS
 H2SO4.
 Job cpu time:       0 days  0 hours  2 minutes 21.4 seconds.
 File lengths (MBytes):  RWF=     14 Int=      0 D2E=      0 Chk=      6 Scr=      1
 Normal termination of Gaussian 09 at Sun Nov 17 09:36:40 2019.
