 Entering Gaussian System, Link 0=g09
 Input=system.gjf
 Output=system.log
 Initial command:
 /opt/local/g09/l1.exe "/home/scratch/oscar/Gau-6308.inp" -scrdir="/home/scratch/oscar/"
 Default is to use a total of  16 processors:
                               16 via shared-memory
                                1 via Linda
 Entering Link 1 = /opt/local/g09/l1.exe PID=      6309.
  
 Copyright (c) 1988,1990,1992,1993,1995,1998,2003,2009,2013,
            Gaussian, Inc.  All Rights Reserved.
  
 This is part of the Gaussian(R) 09 program.  It is based on
 the Gaussian(R) 03 system (copyright 2003, Gaussian, Inc.),
 the Gaussian(R) 98 system (copyright 1998, Gaussian, Inc.),
 the Gaussian(R) 94 system (copyright 1995, Gaussian, Inc.),
 the Gaussian 92(TM) system (copyright 1992, Gaussian, Inc.),
 the Gaussian 90(TM) system (copyright 1990, Gaussian, Inc.),
 the Gaussian 88(TM) system (copyright 1988, Gaussian, Inc.),
 the Gaussian 86(TM) system (copyright 1986, Carnegie Mellon
 University), and the Gaussian 82(TM) system (copyright 1983,
 Carnegie Mellon University). Gaussian is a federally registered
 trademark of Gaussian, Inc.
  
 This software contains proprietary and confidential information,
 including trade secrets, belonging to Gaussian, Inc.
  
 This software is provided under written license and may be
 used, copied, transmitted, or stored only in accord with that
 written license.
  
 The following legend is applicable only to US Government
 contracts under FAR:
  
                    RESTRICTED RIGHTS LEGEND
  
 Use, reproduction and disclosure by the US Government is
 subject to restrictions as set forth in subparagraphs (a)
 and (c) of the Commercial Computer Software - Restricted
 Rights clause in FAR 52.227-19.
  
 Gaussian, Inc.
 340 Quinnipiac St., Bldg. 40, Wallingford CT 06492
  
  
 ---------------------------------------------------------------
 Warning -- This program may not be used in any manner that
 competes with the business of Gaussian, Inc. or will provide
 assistance to any competitor of Gaussian, Inc.  The licensee
 of this program is prohibited from giving any competitor of
 Gaussian, Inc. access to this program.  By using this program,
 the user acknowledges that Gaussian, Inc. is engaged in the
 business of creating and licensing software in the field of
 computational chemistry and represents and warrants to the
 licensee that it is not a competitor of Gaussian, Inc. and that
 it will not use this program in any manner prohibited above.
 ---------------------------------------------------------------
  

 Cite this work as:
 Gaussian 09, Revision D.01,
 M. J. Frisch, G. W. Trucks, H. B. Schlegel, G. E. Scuseria, 
 M. A. Robb, J. R. Cheeseman, G. Scalmani, V. Barone, B. Mennucci, 
 G. A. Petersson, H. Nakatsuji, M. Caricato, X. Li, H. P. Hratchian, 
 A. F. Izmaylov, J. Bloino, G. Zheng, J. L. Sonnenberg, M. Hada, 
 M. Ehara, K. Toyota, R. Fukuda, J. Hasegawa, M. Ishida, T. Nakajima, 
 Y. Honda, O. Kitao, H. Nakai, T. Vreven, J. A. Montgomery, Jr., 
 J. E. Peralta, F. Ogliaro, M. Bearpark, J. J. Heyd, E. Brothers, 
 K. N. Kudin, V. N. Staroverov, T. Keith, R. Kobayashi, J. Normand, 
 K. Raghavachari, A. Rendell, J. C. Burant, S. S. Iyengar, J. Tomasi, 
 M. Cossi, N. Rega, J. M. Millam, M. Klene, J. E. Knox, J. B. Cross, 
 V. Bakken, C. Adamo, J. Jaramillo, R. Gomperts, R. E. Stratmann, 
 O. Yazyev, A. J. Austin, R. Cammi, C. Pomelli, J. W. Ochterski, 
 R. L. Martin, K. Morokuma, V. G. Zakrzewski, G. A. Voth, 
 P. Salvador, J. J. Dannenberg, S. Dapprich, A. D. Daniels, 
 O. Farkas, J. B. Foresman, J. V. Ortiz, J. Cioslowski, 
 and D. J. Fox, Gaussian, Inc., Wallingford CT, 2013.
 
 ******************************************
 Gaussian 09:  EM64L-G09RevD.01 24-Apr-2013
                11-Nov-2019 
 ******************************************
 -------------------------------------------------------------
 # nmr=giao b3lyp/6-31G* nosymm geom=connectivity guess=huckel
 -------------------------------------------------------------
 1/38=1,57=2/1;
 2/12=2,15=1,17=6,18=5,40=1/2;
 3/5=1,6=6,7=1,11=2,16=1,25=1,30=1,74=-5/1,2,8,3;
 4/11=4/1;
 5/5=2,38=5/2;
 8/6=1,10=90,11=11/1;
 10/13=100,31=1,45=16/2;
 6/7=2,8=2,9=2,10=2,28=1/1;
 99/9=1/99;
 -----
 input
 -----
 Symbolic Z-matrix:
 Charge =  0 Multiplicity = 1
 C                    -2.08041  -0.63816   0.17651 
 C                    -2.01655   0.58618  -0.58942 
 C                    -1.12578   1.72517  -0.66829 
 C                    -0.04601   2.19763   0.16884 
 C                    -1.19365  -1.74725   0.45945 
 C                     1.06518   1.64913   0.91351 
 C                     2.00361   0.57941   0.64571 
 C                     0.04308  -2.19985  -0.13694 
 C                     2.09839  -0.52382  -0.28362 
 C                     1.25251  -1.62843  -0.6854 
 As                   -3.63009  -2.45294   1.54066 
 As                   -1.13621  -4.4705    0.84545 
 As                    1.30971  -4.28964  -1.37724 
 As                    3.6886   -2.08621  -1.893 
 As                    4.68539   0.07178   0.39867 
 As                    3.2503    2.16307   2.51486 
 As                    0.90165   4.29135   1.66214 
 As                   -1.08987   4.45787  -0.97641 
 As                   -3.30291   2.3807   -2.22813 
 As                   -4.67695  -0.06553  -0.48753 
 N                    -3.373    -0.96121   0.47306 
 N                    -1.86123  -2.77519   1.06433 
 N                     0.07294  -3.56199  -0.21454 
 N                     1.95123  -2.54803  -1.41615 
 N                     3.39522  -0.7469   -0.64648 
 N                     3.21472   0.84037   1.21855 
 N                     1.59589   2.57261   1.77008 
 N                    -0.079     3.5574    0.2799 
 N                    -1.68984   2.74771  -1.37828 
 N                    -3.22693   0.87526  -1.15029 
 Bq                   -5.       -5.        5.07349 
 Bq                   -4.79592  -5.        4.90525 
 Bq                   -4.59184  -5.        4.73116 
 Bq                   -4.38776  -5.        4.55152 
 Bq                   -4.18367  -5.        4.36656 
 Bq                   -3.97959  -5.        4.17654 
 Bq                   -3.77551  -5.        3.98169 
 Bq                   -3.57143  -5.        3.78223 
 Bq                   -3.36735  -5.        3.57838 
 Bq                   -3.16327  -5.        3.37033 
 Bq                   -2.95918  -5.        3.15828 
 Bq                   -2.7551   -5.        2.94239 
 Bq                   -2.55102  -5.        2.72284 
 Bq                   -2.34694  -5.        2.49977 
 Bq                   -2.14286  -5.        2.27333 
 Bq                   -1.93878  -5.        2.04364 
 Bq                   -1.73469  -5.        1.81082 
 Bq                   -1.53061  -5.        1.57498 
 Bq                   -1.32653  -5.        1.33621 
 Bq                   -1.12245  -5.        1.09459 
 Bq                   -0.91837  -5.        0.8502 
 Bq                   -0.71429  -5.        0.60308 
 Bq                   -0.5102   -5.        0.3533 
 Bq                   -0.30612  -5.        0.10088 
 Bq                   -0.10204  -5.       -0.15415 
 Bq                    0.10204  -5.       -0.41178 
 Bq                    0.30612  -5.       -0.67201 
 Bq                    0.5102   -5.       -0.93486 
 Bq                    0.71429  -5.       -1.20034 
 Bq                    0.91837  -5.       -1.46849 
 Bq                    1.12245  -5.       -1.73936 
 Bq                    1.32653  -5.       -2.013 
 Bq                    1.53061  -5.       -2.2895 
 Bq                    1.73469  -5.       -2.56892 
 Bq                    1.93878  -5.       -2.85136 
 Bq                    2.14286  -5.       -3.13694 
 Bq                    2.34694  -5.       -3.42576 
 Bq                    2.55102  -5.       -3.71795 
 Bq                    2.7551   -5.       -4.01366 
 Bq                    2.95918  -5.       -4.31303 
 Bq                    3.16327  -5.       -4.61624 
 Bq                    3.36735  -5.       -4.92346 
 Bq                    3.57143  -5.       -5.23487 
 Bq                    3.77551  -5.       -5.55068 
 Bq                    3.97959  -5.       -5.87109 
 Bq                    4.18367  -5.       -6.19633 
 Bq                    4.38776  -5.       -6.52664 
 Bq                    4.59184  -5.       -6.86226 
 Bq                    4.79592  -5.       -7.20344 
 Bq                    5.       -5.       -7.55046 
 Bq                   -5.       -4.79592   4.88308 
 Bq                   -4.79592  -4.79592   4.72113 
 Bq                   -4.59184  -4.79592   4.55356 
 Bq                   -4.38776  -4.79592   4.38063 
 Bq                   -4.18367  -4.79592   4.20261 
 Bq                   -3.97959  -4.79592   4.01974 
 Bq                   -3.77551  -4.79592   3.83225 
 Bq                   -3.57143  -4.79592   3.64038 
 Bq                   -3.36735  -4.79592   3.44432 
 Bq                   -3.16327  -4.79592   3.24429 
 Bq                   -2.95918  -4.79592   3.04046 
 Bq                   -2.7551   -4.79592   2.83301 
 Bq                   -2.55102  -4.79592   2.62211 
 Bq                   -2.34694  -4.79592   2.40791 
 Bq                   -2.14286  -4.79592   2.19055 
 Bq                   -1.93878  -4.79592   1.97017 
 Bq                   -1.73469  -4.79592   1.74686 
 Bq                   -1.53061  -4.79592   1.52075 
 Bq                   -1.32653  -4.79592   1.29193 
 Bq                   -1.12245  -4.79592   1.06047 
 Bq                   -0.91837  -4.79592   0.82645 
 Bq                   -0.71429  -4.79592   0.58993 
 Bq                   -0.5102   -4.79592   0.35095 
 Bq                   -0.30612  -4.79592   0.10955 
 Bq                   -0.10204  -4.79592  -0.13424 
 Bq                    0.10204  -4.79592  -0.38042 
 Bq                    0.30612  -4.79592  -0.62899 
 Bq                    0.5102   -4.79592  -0.87995 
 Bq                    0.71429  -4.79592  -1.13334 
 Bq                    0.91837  -4.79592  -1.38918 
 Bq                    1.12245  -4.79592  -1.64753 
 Bq                    1.32653  -4.79592  -1.90843 
 Bq                    1.53061  -4.79592  -2.17197 
 Bq                    1.73469  -4.79592  -2.43822 
 Bq                    1.93878  -4.79592  -2.70728 
 Bq                    2.14286  -4.79592  -2.97926 
 Bq                    2.34694  -4.79592  -3.25426 
 Bq                    2.55102  -4.79592  -3.53242 
 Bq                    2.7551   -4.79592  -3.81389 
 Bq                    2.95918  -4.79592  -4.09881 
 Bq                    3.16327  -4.79592  -4.38734 
 Bq                    3.36735  -4.79592  -4.67967 
 Bq                    3.57143  -4.79592  -4.97597 
 Bq                    3.77551  -4.79592  -5.27646 
 Bq                    3.97959  -4.79592  -5.58134 
 Bq                    4.18367  -4.79592  -5.89083 
 Bq                    4.38776  -4.79592  -6.20517 
 Bq                    4.59184  -4.79592  -6.52461 
 Bq                    4.79592  -4.79592  -6.8494 
 Bq                    5.       -4.79592  -7.17981 
 Bq                   -5.       -4.59184   4.68599 
 Bq                   -4.79592  -4.59184   4.53054 
 Bq                   -4.59184  -4.59184   4.36968 
 Bq                   -4.38776  -4.59184   4.20367 
 Bq                   -4.18367  -4.59184   4.03277 
 Bq                   -3.97959  -4.59184   3.85723 
 Bq                   -3.77551  -4.59184   3.67728 
 Bq                   -3.57143  -4.59184   3.49315 
 Bq                   -3.36735  -4.59184   3.30504 
 Bq                   -3.16327  -4.59184   3.11316 
 Bq                   -2.95918  -4.59184   2.91769 
 Bq                   -2.7551   -4.59184   2.71881 
 Bq                   -2.55102  -4.59184   2.51668 
 Bq                   -2.34694  -4.59184   2.31146 
 Bq                   -2.14286  -4.59184   2.10329 
 Bq                   -1.93878  -4.59184   1.89229 
 Bq                   -1.73469  -4.59184   1.67858 
 Bq                   -1.53061  -4.59184   1.46227 
 Bq                   -1.32653  -4.59184   1.24345 
 Bq                   -1.12245  -4.59184   1.02221 
 Bq                   -0.91837  -4.59184   0.79861 
 Bq                   -0.71429  -4.59184   0.57272 
 Bq                   -0.5102   -4.59184   0.34457 
 Bq                   -0.30612  -4.59184   0.11421 
 Bq                   -0.10204  -4.59184  -0.11834 
 Bq                    0.10204  -4.59184  -0.35307 
 Bq                    0.30612  -4.59184  -0.58998 
 Bq                    0.5102   -4.59184  -0.82908 
 Bq                    0.71429  -4.59184  -1.0704 
 Bq                    0.91837  -4.59184  -1.31397 
 Bq                    1.12245  -4.59184  -1.55983 
 Bq                    1.32653  -4.59184  -1.80805 
 Bq                    1.53061  -4.59184  -2.0587 
 Bq                    1.73469  -4.59184  -2.31185 
 Bq                    1.93878  -4.59184  -2.56761 
 Bq                    2.14286  -4.59184  -2.82607 
 Bq                    2.34694  -4.59184  -3.08736 
 Bq                    2.55102  -4.59184  -3.3516 
 Bq                    2.7551   -4.59184  -3.61894 
 Bq                    2.95918  -4.59184  -3.88952 
 Bq                    3.16327  -4.59184  -4.16351 
 Bq                    3.36735  -4.59184  -4.4411 
 Bq                    3.57143  -4.59184  -4.72245 
 Bq                    3.77551  -4.59184  -5.00778 
 Bq                    3.97959  -4.59184  -5.29729 
 Bq                    4.18367  -4.59184  -5.59122 
 Bq                    4.38776  -4.59184  -5.88978 
 Bq                    4.59184  -4.59184  -6.19323 
 Bq                    4.79592  -4.59184  -6.50183 
 Bq                    5.       -4.59184  -6.81585 
 Bq                   -5.       -4.38776   4.48267 
 Bq                   -4.79592  -4.38776   4.33394 
 Bq                   -4.59184  -4.38776   4.18 
 Bq                   -4.38776  -4.38776   4.0211 
 Bq                   -4.18367  -4.38776   3.85752 
 Bq                   -3.97959  -4.38776   3.68948 
 Bq                   -3.77551  -4.38776   3.51724 
 Bq                   -3.57143  -4.38776   3.34101 
 Bq                   -3.36735  -4.38776   3.161 
 Bq                   -3.16327  -4.38776   2.97742 
 Bq                   -2.95918  -4.38776   2.79045 
 Bq                   -2.7551   -4.38776   2.60026 
 Bq                   -2.55102  -4.38776   2.40702 
 Bq                   -2.34694  -4.38776   2.21088 
 Bq                   -2.14286  -4.38776   2.01199 
 Bq                   -1.93878  -4.38776   1.81047 
 Bq                   -1.73469  -4.38776   1.60644 
 Bq                   -1.53061  -4.38776   1.4 
 Bq                   -1.32653  -4.38776   1.19126 
 Bq                   -1.12245  -4.38776   0.98028 
 Bq                   -0.91837  -4.38776   0.76715 
 Bq                   -0.71429  -4.38776   0.55192 
 Bq                   -0.5102   -4.38776   0.33463 
 Bq                   -0.30612  -4.38776   0.11533 
 Bq                   -0.10204  -4.38776  -0.10597 
 Bq                    0.10204  -4.38776  -0.32925 
 Bq                    0.30612  -4.38776  -0.55452 
 Bq                    0.5102   -4.38776  -0.78178 
 Bq                    0.71429  -4.38776  -1.01105 
 Bq                    0.91837  -4.38776  -1.24238 
 Bq                    1.12245  -4.38776  -1.47581 
 Bq                    1.32653  -4.38776  -1.7114 
 Bq                    1.53061  -4.38776  -1.94922 
 Bq                    1.73469  -4.38776  -2.18934 
 Bq                    1.93878  -4.38776  -2.43188 
 Bq                    2.14286  -4.38776  -2.67692 
 Bq                    2.34694  -4.38776  -2.92459 
 Bq                    2.55102  -4.38776  -3.17501 
 Bq                    2.7551   -4.38776  -3.42834 
 Bq                    2.95918  -4.38776  -3.68471 
 Bq                    3.16327  -4.38776  -3.9443 
 Bq                    3.36735  -4.38776  -4.20728 
 Bq                    3.57143  -4.38776  -4.47383 
 Bq                    3.77551  -4.38776  -4.74417 
 Bq                    3.97959  -4.38776  -5.01849 
 Bq                    4.18367  -4.38776  -5.29702 
 Bq                    4.38776  -4.38776  -5.57999 
 Bq                    4.59184  -4.38776  -5.86766 
 Bq                    4.79592  -4.38776  -6.16028 
 Bq                    5.       -4.38776  -6.45812 
 Bq                   -5.       -4.18367   4.27357 
 Bq                   -4.79592  -4.18367   4.13178 
 Bq                   -4.59184  -4.18367   3.98496 
 Bq                   -4.38776  -4.18367   3.83338 
 Bq                   -4.18367  -4.18367   3.67729 
 Bq                   -3.97959  -4.18367   3.51695 
 Bq                   -3.77551  -4.18367   3.35258 
 Bq                   -3.57143  -4.18367   3.18442 
 Bq                   -3.36735  -4.18367   3.01266 
 Bq                   -3.16327  -4.18367   2.83752 
 Bq                   -2.95918  -4.18367   2.65917 
 Bq                   -2.7551   -4.18367   2.4778 
 Bq                   -2.55102  -4.18367   2.29356 
 Bq                   -2.34694  -4.18367   2.10662 
 Bq                   -2.14286  -4.18367   1.91711 
 Bq                   -1.93878  -4.18367   1.72516 
 Bq                   -1.73469  -4.18367   1.53089 
 Bq                   -1.53061  -4.18367   1.3344 
 Bq                   -1.32653  -4.18367   1.13578 
 Bq                   -1.12245  -4.18367   0.93513 
 Bq                   -0.91837  -4.18367   0.73251 
 Bq                   -0.71429  -4.18367   0.52797 
 Bq                   -0.5102   -4.18367   0.32157 
 Bq                   -0.30612  -4.18367   0.11334 
 Bq                   -0.10204  -4.18367  -0.0967 
 Bq                    0.10204  -4.18367  -0.30853 
 Bq                    0.30612  -4.18367  -0.52215 
 Bq                    0.5102   -4.18367  -0.73759 
 Bq                    0.71429  -4.18367  -0.95485 
 Bq                    0.91837  -4.18367  -1.17397 
 Bq                    1.12245  -4.18367  -1.39501 
 Bq                    1.32653  -4.18367  -1.61802 
 Bq                    1.53061  -4.18367  -1.84307 
 Bq                    1.73469  -4.18367  -2.07024 
 Bq                    1.93878  -4.18367  -2.29963 
 Bq                    2.14286  -4.18367  -2.53135 
 Bq                    2.34694  -4.18367  -2.7655 
 Bq                    2.55102  -4.18367  -3.00222 
 Bq                    2.7551   -4.18367  -3.24165 
 Bq                    2.95918  -4.18367  -3.48394 
 Bq                    3.16327  -4.18367  -3.72925 
 Bq                    3.36735  -4.18367  -3.97777 
 Bq                    3.57143  -4.18367  -4.22968 
 Bq                    3.77551  -4.18367  -4.48517 
 Bq                    3.97959  -4.18367  -4.74447 
 Bq                    4.18367  -4.18367  -5.00779 
 Bq                    4.38776  -4.18367  -5.27537 
 Bq                    4.59184  -4.18367  -5.54745 
 Bq                    4.79592  -4.18367  -5.82429 
 Bq                    5.       -4.18367  -6.10616 
 Bq                   -5.       -3.97959   4.05912 
 Bq                   -4.79592  -3.97959   3.92448 
 Bq                   -4.59184  -3.97959   3.78499 
 Bq                   -4.38776  -3.97959   3.64092 
 Bq                   -4.18367  -3.97959   3.49252 
 Bq                   -3.97959  -3.97959   3.34005 
 Bq                   -3.77551  -3.97959   3.18373 
 Bq                   -3.57143  -3.97959   3.02379 
 Bq                   -3.36735  -3.97959   2.86044 
 Bq                   -3.16327  -3.97959   2.69387 
 Bq                   -2.95918  -3.97959   2.52429 
 Bq                   -2.7551   -3.97959   2.35186 
 Bq                   -2.55102  -3.97959   2.17675 
 Bq                   -2.34694  -3.97959   1.99911 
 Bq                   -2.14286  -3.97959   1.81908 
 Bq                   -1.93878  -3.97959   1.63678 
 Bq                   -1.73469  -3.97959   1.45235 
 Bq                   -1.53061  -3.97959   1.26587 
 Bq                   -1.32653  -3.97959   1.07746 
 Bq                   -1.12245  -3.97959   0.88718 
 Bq                   -0.91837  -3.97959   0.69511 
 Bq                   -0.71429  -3.97959   0.50131 
 Bq                   -0.5102   -3.97959   0.30582 
 Bq                   -0.30612  -3.97959   0.10868 
 Bq                   -0.10204  -3.97959  -0.09008 
 Bq                    0.10204  -3.97959  -0.29047 
 Bq                    0.30612  -3.97959  -0.49246 
 Bq                    0.5102   -3.97959  -0.69609 
 Bq                    0.71429  -3.97959  -0.90136 
 Bq                    0.91837  -3.97959  -1.10832 
 Bq                    1.12245  -3.97959  -1.31701 
 Bq                    1.32653  -3.97959  -1.5275 
 Bq                    1.53061  -3.97959  -1.73984 
 Bq                    1.73469  -3.97959  -1.95413 
 Bq                    1.93878  -3.97959  -2.17046 
 Bq                    2.14286  -3.97959  -2.38893 
 Bq                    2.34694  -3.97959  -2.60966 
 Bq                    2.55102  -3.97959  -2.83278 
 Bq                    2.7551   -3.97959  -3.05843 
 Bq                    2.95918  -3.97959  -3.28676 
 Bq                    3.16327  -3.97959  -3.51794 
 Bq                    3.36735  -3.97959  -3.75214 
 Bq                    3.57143  -3.97959  -3.98956 
 Bq                    3.77551  -3.97959  -4.23038 
 Bq                    3.97959  -3.97959  -4.47482 
 Bq                    4.18367  -3.97959  -4.72311 
 Bq                    4.38776  -3.97959  -4.97547 
 Bq                    4.59184  -3.97959  -5.23216 
 Bq                    4.79592  -3.97959  -5.49343 
 Bq                    5.       -3.97959  -5.75955 
 Bq                   -5.       -3.77551   3.83973 
 Bq                   -4.79592  -3.77551   3.71246 
 Bq                   -4.59184  -3.77551   3.5805 
 Bq                   -4.38776  -3.77551   3.44414 
 Bq                   -4.18367  -3.77551   3.30361 
 Bq                   -3.97959  -3.77551   3.15918 
 Bq                   -3.77551  -3.77551   3.01108 
 Bq                   -3.57143  -3.77551   2.85953 
 Bq                   -3.36735  -3.77551   2.70474 
 Bq                   -3.16327  -3.77551   2.5469 
 Bq                   -2.95918  -3.77551   2.38622 
 Bq                   -2.7551   -3.77551   2.22285 
 Bq                   -2.55102  -3.77551   2.05698 
 Bq                   -2.34694  -3.77551   1.88874 
 Bq                   -2.14286  -3.77551   1.71829 
 Bq                   -1.93878  -3.77551   1.54575 
 Bq                   -1.73469  -3.77551   1.37123 
 Bq                   -1.53061  -3.77551   1.19485 
 Bq                   -1.32653  -3.77551   1.01669 
 Bq                   -1.12245  -3.77551   0.83684 
 Bq                   -0.91837  -3.77551   0.65537 
 Bq                   -0.71429  -3.77551   0.47234 
 Bq                   -0.5102   -3.77551   0.28779 
 Bq                   -0.30612  -3.77551   0.10176 
 Bq                   -0.10204  -3.77551  -0.08573 
 Bq                    0.10204  -3.77551  -0.27466 
 Bq                    0.30612  -3.77551  -0.46504 
 Bq                    0.5102   -3.77551  -0.65687 
 Bq                    0.71429  -3.77551  -0.85018 
 Bq                    0.91837  -3.77551  -1.04501 
 Bq                    1.12245  -3.77551  -1.2414 
 Bq                    1.32653  -3.77551  -1.43942 
 Bq                    1.53061  -3.77551  -1.63912 
 Bq                    1.73469  -3.77551  -1.8406 
 Bq                    1.93878  -3.77551  -2.04394 
 Bq                    2.14286  -3.77551  -2.24926 
 Bq                    2.34694  -3.77551  -2.45667 
 Bq                    2.55102  -3.77551  -2.6663 
 Bq                    2.7551   -3.77551  -2.87829 
 Bq                    2.95918  -3.77551  -3.09279 
 Bq                    3.16327  -3.77551  -3.30996 
 Bq                    3.36735  -3.77551  -3.52999 
 Bq                    3.57143  -3.77551  -3.75306 
 Bq                    3.77551  -3.77551  -3.97937 
 Bq                    3.97959  -3.77551  -4.20913 
 Bq                    4.18367  -3.77551  -4.44256 
 Bq                    4.38776  -3.77551  -4.6799 
 Bq                    4.59184  -3.77551  -4.92139 
 Bq                    4.79592  -3.77551  -5.1673 
 Bq                    5.       -3.77551  -5.41789 
 Bq                   -5.       -3.57143   3.61579 
 Bq                   -4.79592  -3.57143   3.49609 
 Bq                   -4.59184  -3.57143   3.37188 
 Bq                   -4.38776  -3.57143   3.24341 
 Bq                   -4.18367  -3.57143   3.11096 
 Bq                   -3.97959  -3.57143   2.97475 
 Bq                   -3.77551  -3.57143   2.83504 
 Bq                   -3.57143  -3.57143   2.69203 
 Bq                   -3.36735  -3.57143   2.54595 
 Bq                   -3.16327  -3.57143   2.39698 
 Bq                   -2.95918  -3.57143   2.24533 
 Bq                   -2.7551   -3.57143   2.09116 
 Bq                   -2.55102  -3.57143   1.93464 
 Bq                   -2.34694  -3.57143   1.77592 
 Bq                   -2.14286  -3.57143   1.61514 
 Bq                   -1.93878  -3.57143   1.45244 
 Bq                   -1.73469  -3.57143   1.28792 
 Bq                   -1.53061  -3.57143   1.1217 
 Bq                   -1.32653  -3.57143   0.95386 
 Bq                   -1.12245  -3.57143   0.78449 
 Bq                   -0.91837  -3.57143   0.61367 
 Bq                   -0.71429  -3.57143   0.44144 
 Bq                   -0.5102   -3.57143   0.26786 
 Bq                   -0.30612  -3.57143   0.09295 
 Bq                   -0.10204  -3.57143  -0.08324 
 Bq                    0.10204  -3.57143  -0.26072 
 Bq                    0.30612  -3.57143  -0.43949 
 Bq                    0.5102   -3.57143  -0.61955 
 Bq                    0.71429  -3.57143  -0.80093 
 Bq                    0.91837  -3.57143  -0.98366 
 Bq                    1.12245  -3.57143  -1.1678 
 Bq                    1.32653  -3.57143  -1.35339 
 Bq                    1.53061  -3.57143  -1.54052 
 Bq                    1.73469  -3.57143  -1.72926 
 Bq                    1.93878  -3.57143  -1.9197 
 Bq                    2.14286  -3.57143  -2.11196 
 Bq                    2.34694  -3.57143  -2.30614 
 Bq                    2.55102  -3.57143  -2.50239 
 Bq                    2.7551   -3.57143  -2.70083 
 Bq                    2.95918  -3.57143  -2.90162 
 Bq                    3.16327  -3.57143  -3.10493 
 Bq                    3.36735  -3.57143  -3.31093 
 Bq                    3.57143  -3.57143  -3.5198 
 Bq                    3.77551  -3.57143  -3.73176 
 Bq                    3.97959  -3.57143  -3.94701 
 Bq                    4.18367  -3.57143  -4.16576 
 Bq                    4.38776  -3.57143  -4.38827 
 Bq                    4.59184  -3.57143  -4.61477 
 Bq                    4.79592  -3.57143  -4.84551 
 Bq                    5.       -3.57143  -5.08078 
 Bq                   -5.       -3.36735   3.38764 
 Bq                   -4.79592  -3.36735   3.27575 
 Bq                   -4.59184  -3.36735   3.15948 
 Bq                   -4.38776  -3.36735   3.03912 
 Bq                   -4.18367  -3.36735   2.91491 
 Bq                   -3.97959  -3.36735   2.78711 
 Bq                   -3.77551  -3.36735   2.65595 
 Bq                   -3.57143  -3.36735   2.52166 
 Bq                   -3.36735  -3.36735   2.38443 
 Bq                   -3.16327  -3.36735   2.24449 
 Bq                   -2.95918  -3.36735   2.102 
 Bq                   -2.7551   -3.36735   1.95715 
 Bq                   -2.55102  -3.36735   1.8101 
 Bq                   -2.34694  -3.36735   1.661 
 Bq                   -2.14286  -3.36735   1.51 
 Bq                   -1.93878  -3.36735   1.35722 
 Bq                   -1.73469  -3.36735   1.20278 
 Bq                   -1.53061  -3.36735   1.04679 
 Bq                   -1.32653  -3.36735   0.88934 
 Bq                   -1.12245  -3.36735   0.73051 
 Bq                   -0.91837  -3.36735   0.57037 
 Bq                   -0.71429  -3.36735   0.40898 
 Bq                   -0.5102   -3.36735   0.24639 
 Bq                   -0.30612  -3.36735   0.08264 
 Bq                   -0.10204  -3.36735  -0.08226 
 Bq                    0.10204  -3.36735  -0.24829 
 Bq                    0.30612  -3.36735  -0.41546 
 Bq                    0.5102   -3.36735  -0.58376 
 Bq                    0.71429  -3.36735  -0.75323 
 Bq                    0.91837  -3.36735  -0.92391 
 Bq                    1.12245  -3.36735  -1.09583 
 Bq                    1.32653  -3.36735  -1.26907 
 Bq                    1.53061  -3.36735  -1.44368 
 Bq                    1.73469  -3.36735  -1.61974 
 Bq                    1.93878  -3.36735  -1.79737 
 Bq                    2.14286  -3.36735  -1.97665 
 Bq                    2.34694  -3.36735  -2.15771 
 Bq                    2.55102  -3.36735  -2.34068 
 Bq                    2.7551   -3.36735  -2.52569 
 Bq                    2.95918  -3.36735  -2.7129 
 Bq                    3.16327  -3.36735  -2.90247 
 Bq                    3.36735  -3.36735  -3.09459 
 Bq                    3.57143  -3.36735  -3.28943 
 Bq                    3.77551  -3.36735  -3.48719 
 Bq                    3.97959  -3.36735  -3.68809 
 Bq                    4.18367  -3.36735  -3.89236 
 Bq                    4.38776  -3.36735  -4.10021 
 Bq                    4.59184  -3.36735  -4.31191 
 Bq                    4.79592  -3.36735  -4.52771 
 Bq                    5.       -3.36735  -4.74787 
 Bq                   -5.       -3.16327   3.15566 
 Bq                   -4.79592  -3.16327   3.05177 
 Bq                   -4.59184  -3.16327   2.94366 
 Bq                   -4.38776  -3.16327   2.83159 
 Bq                   -4.18367  -3.16327   2.71583 
 Bq                   -3.97959  -3.16327   2.59661 
 Bq                   -3.77551  -3.16327   2.47418 
 Bq                   -3.57143  -3.16327   2.34875 
 Bq                   -3.36735  -3.16327   2.22054 
 Bq                   -3.16327  -3.16327   2.08975 
 Bq                   -2.95918  -3.16327   1.95656 
 Bq                   -2.7551   -3.16327   1.82116 
 Bq                   -2.55102  -3.16327   1.68369 
 Bq                   -2.34694  -3.16327   1.54433 
 Bq                   -2.14286  -3.16327   1.4032 
 Bq                   -1.93878  -3.16327   1.26044 
 Bq                   -1.73469  -3.16327   1.11616 
 Bq                   -1.53061  -3.16327   0.97047 
 Bq                   -1.32653  -3.16327   0.82347 
 Bq                   -1.12245  -3.16327   0.67523 
 Bq                   -0.91837  -3.16327   0.52582 
 Bq                   -0.71429  -3.16327   0.37531 
 Bq                   -0.5102   -3.16327   0.22374 
 Bq                   -0.30612  -3.16327   0.07115 
 Bq                   -0.10204  -3.16327  -0.08244 
 Bq                    0.10204  -3.16327  -0.23702 
 Bq                    0.30612  -3.16327  -0.39259 
 Bq                    0.5102   -3.16327  -0.54916 
 Bq                    0.71429  -3.16327  -0.70675 
 Bq                    0.91837  -3.16327  -0.86541 
 Bq                    1.12245  -3.16327  -1.02516 
 Bq                    1.32653  -3.16327  -1.18608 
 Bq                    1.53061  -3.16327  -1.34824 
 Bq                    1.73469  -3.16327  -1.51171 
 Bq                    1.93878  -3.16327  -1.6766 
 Bq                    2.14286  -3.16327  -1.843 
 Bq                    2.34694  -3.16327  -2.01103 
 Bq                    2.55102  -3.16327  -2.18083 
 Bq                    2.7551   -3.16327  -2.35253 
 Bq                    2.95918  -3.16327  -2.52628 
 Bq                    3.16327  -3.16327  -2.70225 
 Bq                    3.36735  -3.16327  -2.88062 
 Bq                    3.57143  -3.16327  -3.06158 
 Bq                    3.77551  -3.16327  -3.24531 
 Bq                    3.97959  -3.16327  -3.43204 
 Bq                    4.18367  -3.16327  -3.62199 
 Bq                    4.38776  -3.16327  -3.81538 
 Bq                    4.59184  -3.16327  -4.01248 
 Bq                    4.79592  -3.16327  -4.21353 
 Bq                    5.       -3.16327  -4.4188 
 Bq                   -5.       -2.95918   2.92015 
 Bq                   -4.79592  -2.95918   2.82449 
 Bq                   -4.59184  -2.95918   2.72474 
 Bq                   -4.38776  -2.95918   2.62116 
 Bq                   -4.18367  -2.95918   2.51403 
 Bq                   -3.97959  -2.95918   2.40357 
 Bq                   -3.77551  -2.95918   2.29004 
 Bq                   -3.57143  -2.95918   2.17364 
 Bq                   -3.36735  -2.95918   2.0546 
 Bq                   -3.16327  -2.95918   1.93311 
 Bq                   -2.95918  -2.95918   1.80936 
 Bq                   -2.7551   -2.95918   1.68352 
 Bq                   -2.55102  -2.95918   1.55576 
 Bq                   -2.34694  -2.95918   1.42623 
 Bq                   -2.14286  -2.95918   1.29508 
 Bq                   -1.93878  -2.95918   1.16242 
 Bq                   -1.73469  -2.95918   1.02838 
 Bq                   -1.53061  -2.95918   0.89307 
 Bq                   -1.32653  -2.95918   0.75657 
 Bq                   -1.12245  -2.95918   0.61898 
 Bq                   -0.91837  -2.95918   0.48035 
 Bq                   -0.71429  -2.95918   0.34075 
 Bq                   -0.5102   -2.95918   0.20023 
 Bq                   -0.30612  -2.95918   0.05882 
 Bq                   -0.10204  -2.95918  -0.08345 
 Bq                    0.10204  -2.95918  -0.22659 
 Bq                    0.30612  -2.95918  -0.37057 
 Bq                    0.5102   -2.95918  -0.51542 
 Bq                    0.71429  -2.95918  -0.66116 
 Bq                    0.91837  -2.95918  -0.80782 
 Bq                    1.12245  -2.95918  -0.95546 
 Bq                    1.32653  -2.95918  -1.10413 
 Bq                    1.53061  -2.95918  -1.25389 
 Bq                    1.73469  -2.95918  -1.40484 
 Bq                    1.93878  -2.95918  -1.55706 
 Bq                    2.14286  -2.95918  -1.71067 
 Bq                    2.34694  -2.95918  -1.86578 
 Bq                    2.55102  -2.95918  -2.02251 
 Bq                    2.7551   -2.95918  -2.18101 
 Bq                    2.95918  -2.95918  -2.34143 
 Bq                    3.16327  -2.95918  -2.50394 
 Bq                    3.36735  -2.95918  -2.66871 
 Bq                    3.57143  -2.95918  -2.83593 
 Bq                    3.77551  -2.95918  -3.0058 
 Bq                    3.97959  -2.95918  -3.17853 
 Bq                    4.18367  -2.95918  -3.35433 
 Bq                    4.38776  -2.95918  -3.53346 
 Bq                    4.59184  -2.95918  -3.71615 
 Bq                    4.79592  -2.95918  -3.90266 
 Bq                    5.       -2.95918  -4.09326 
 Bq                   -5.       -2.7551    2.68142 
 Bq                   -4.79592  -2.7551    2.5942 
 Bq                   -4.59184  -2.7551    2.50302 
 Bq                   -4.38776  -2.7551    2.40813 
 Bq                   -4.18367  -2.7551    2.30982 
 Bq                   -3.97959  -2.7551    2.2083 
 Bq                   -3.77551  -2.7551    2.10384 
 Bq                   -3.57143  -2.7551    1.99664 
 Bq                   -3.36735  -2.7551    1.88691 
 Bq                   -3.16327  -2.7551    1.77486 
 Bq                   -2.95918  -2.7551    1.66068 
 Bq                   -2.7551   -2.7551    1.54454 
 Bq                   -2.55102  -2.7551    1.4266 
 Bq                   -2.34694  -2.7551    1.30701 
 Bq                   -2.14286  -2.7551    1.18593 
 Bq                   -1.93878  -2.7551    1.06347 
 Bq                   -1.73469  -2.7551    0.93975 
 Bq                   -1.53061  -2.7551    0.81489 
 Bq                   -1.32653  -2.7551    0.68896 
 Bq                   -1.12245  -2.7551    0.56207 
 Bq                   -0.91837  -2.7551    0.43426 
 Bq                   -0.71429  -2.7551    0.30561 
 Bq                   -0.5102   -2.7551    0.17617 
 Bq                   -0.30612  -2.7551    0.04595 
 Bq                   -0.10204  -2.7551   -0.085 
 Bq                    0.10204  -2.7551   -0.21668 
 Bq                    0.30612  -2.7551   -0.34909 
 Bq                    0.5102   -2.7551   -0.48224 
 Bq                    0.71429  -2.7551   -0.61615 
 Bq                    0.91837  -2.7551   -0.75086 
 Bq                    1.12245  -2.7551   -0.88642 
 Bq                    1.32653  -2.7551   -1.02289 
 Bq                    1.53061  -2.7551   -1.16032 
 Bq                    1.73469  -2.7551   -1.29882 
 Bq                    1.93878  -2.7551   -1.43846 
 Bq                    2.14286  -2.7551   -1.57937 
 Bq                    2.34694  -2.7551   -1.72164 
 Bq                    2.55102  -2.7551   -1.86542 
 Bq                    2.7551   -2.7551   -2.01084 
 Bq                    2.95918  -2.7551   -2.15806 
 Bq                    3.16327  -2.7551   -2.30724 
 Bq                    3.36735  -2.7551   -2.45855 
 Bq                    3.57143  -2.7551   -2.61219 
 Bq                    3.77551  -2.7551   -2.76835 
 Bq                    3.97959  -2.7551   -2.92724 
 Bq                    4.18367  -2.7551   -3.08909 
 Bq                    4.38776  -2.7551   -3.25413 
 Bq                    4.59184  -2.7551   -3.42261 
 Bq                    4.79592  -2.7551   -3.59479 
 Bq                    5.       -2.7551   -3.77093 
 Bq                   -5.       -2.55102   2.43976 
 Bq                   -4.79592  -2.55102   2.3612 
 Bq                   -4.59184  -2.55102   2.27879 
 Bq                   -4.38776  -2.55102   2.19279 
 Bq                   -4.18367  -2.55102   2.10348 
 Bq                   -3.97959  -2.55102   2.01109 
 Bq                   -3.77551  -2.55102   1.91586 
 Bq                   -3.57143  -2.55102   1.81801 
 Bq                   -3.36735  -2.55102   1.71776 
 Bq                   -3.16327  -2.55102   1.6153 
 Bq                   -2.95918  -2.55102   1.51082 
 Bq                   -2.7551   -2.55102   1.40449 
 Bq                   -2.55102  -2.55102   1.29649 
 Bq                   -2.34694  -2.55102   1.18696 
 Bq                   -2.14286  -2.55102   1.07604 
 Bq                   -1.93878  -2.55102   0.96387 
 Bq                   -1.73469  -2.55102   0.85056 
 Bq                   -1.53061  -2.55102   0.73621 
 Bq                   -1.32653  -2.55102   0.62092 
 Bq                   -1.12245  -2.55102   0.50477 
 Bq                   -0.91837  -2.55102   0.38784 
 Bq                   -0.71429  -2.55102   0.27017 
 Bq                   -0.5102   -2.55102   0.15183 
 Bq                   -0.30612  -2.55102   0.03283 
 Bq                   -0.10204  -2.55102  -0.08679 
 Bq                    0.10204  -2.55102  -0.20702 
 Bq                    0.30612  -2.55102  -0.32786 
 Bq                    0.5102   -2.55102  -0.44933 
 Bq                    0.71429  -2.55102  -0.57144 
 Bq                    0.91837  -2.55102  -0.69424 
 Bq                    1.12245  -2.55102  -0.81776 
 Bq                    1.32653  -2.55102  -0.94208 
 Bq                    1.53061  -2.55102  -1.06725 
 Bq                    1.73469  -2.55102  -1.19336 
 Bq                    1.93878  -2.55102  -1.32051 
 Bq                    2.14286  -2.55102  -1.4488 
 Bq                    2.34694  -2.55102  -1.57834 
 Bq                    2.55102  -2.55102  -1.70928 
 Bq                    2.7551   -2.55102  -1.84173 
 Bq                    2.95918  -2.55102  -1.97587 
 Bq                    3.16327  -2.55102  -2.11185 
 Bq                    3.36735  -2.55102  -2.24985 
 Bq                    3.57143  -2.55102  -2.39006 
 Bq                    3.77551  -2.55102  -2.53267 
 Bq                    3.97959  -2.55102  -2.67791 
 Bq                    4.18367  -2.55102  -2.82598 
 Bq                    4.38776  -2.55102  -2.97712 
 Bq                    4.59184  -2.55102  -3.13159 
 Bq                    4.79592  -2.55102  -3.28964 
 Bq                    5.       -2.55102  -3.45153 
 Bq                   -5.       -2.34694   2.19544 
 Bq                   -4.79592  -2.34694   2.12574 
 Bq                   -4.59184  -2.34694   2.05231 
 Bq                   -4.38776  -2.34694   1.9754 
 Bq                   -4.18367  -2.34694   1.89528 
 Bq                   -3.97959  -2.34694   1.81219 
 Bq                   -3.77551  -2.34694   1.72637 
 Bq                   -3.57143  -2.34694   1.63804 
 Bq                   -3.36735  -2.34694   1.5474 
 Bq                   -3.16327  -2.34694   1.45467 
 Bq                   -2.95918  -2.34694   1.36003 
 Bq                   -2.7551   -2.34694   1.26365 
 Bq                   -2.55102  -2.34694   1.1657 
 Bq                   -2.34694  -2.34694   1.06633 
 Bq                   -2.14286  -2.34694   0.96568 
 Bq                   -1.93878  -2.34694   0.86389 
 Bq                   -1.73469  -2.34694   0.76106 
 Bq                   -1.53061  -2.34694   0.6573 
 Bq                   -1.32653  -2.34694   0.55271 
 Bq                   -1.12245  -2.34694   0.44736 
 Bq                   -0.91837  -2.34694   0.34134 
 Bq                   -0.71429  -2.34694   0.2347 
 Bq                   -0.5102   -2.34694   0.12748 
 Bq                   -0.30612  -2.34694   0.01972 
 Bq                   -0.10204  -2.34694  -0.08856 
 Bq                    0.10204  -2.34694  -0.19734 
 Bq                    0.30612  -2.34694  -0.30662 
 Bq                    0.5102   -2.34694  -0.41642 
 Bq                    0.71429  -2.34694  -0.52677 
 Bq                    0.91837  -2.34694  -0.63768 
 Bq                    1.12245  -2.34694  -0.74922 
 Bq                    1.32653  -2.34694  -0.86144 
 Bq                    1.53061  -2.34694  -0.97441 
 Bq                    1.73469  -2.34694  -1.08821 
 Bq                    1.93878  -2.34694  -1.20294 
 Bq                    2.14286  -2.34694  -1.31871 
 Bq                    2.34694  -2.34694  -1.43562 
 Bq                    2.55102  -2.34694  -1.55381 
 Bq                    2.7551   -2.34694  -1.67342 
 Bq                    2.95918  -2.34694  -1.7946 
 Bq                    3.16327  -2.34694  -1.91752 
 Bq                    3.36735  -2.34694  -2.04235 
 Bq                    3.57143  -2.34694  -2.16928 
 Bq                    3.77551  -2.34694  -2.29851 
 Bq                    3.97959  -2.34694  -2.43025 
 Bq                    4.18367  -2.34694  -2.56472 
 Bq                    4.38776  -2.34694  -2.70216 
 Bq                    4.59184  -2.34694  -2.84282 
 Bq                    4.79592  -2.34694  -2.98694 
 Bq                    5.       -2.34694  -3.13481 
 Bq                   -5.       -2.14286   1.94869 
 Bq                   -4.79592  -2.14286   1.88808 
 Bq                   -4.59184  -2.14286   1.82383 
 Bq                   -4.38776  -2.14286   1.7562 
 Bq                   -4.18367  -2.14286   1.68546 
 Bq                   -3.97959  -2.14286   1.61185 
 Bq                   -3.77551  -2.14286   1.53561 
 Bq                   -3.57143  -2.14286   1.45695 
 Bq                   -3.36735  -2.14286   1.3761 
 Bq                   -3.16327  -2.14286   1.29324 
 Bq                   -2.95918  -2.14286   1.20857 
 Bq                   -2.7551   -2.14286   1.12226 
 Bq                   -2.55102  -2.14286   1.03448 
 Bq                   -2.34694  -2.14286   0.94538 
 Bq                   -2.14286  -2.14286   0.8551 
 Bq                   -1.93878  -2.14286   0.76376 
 Bq                   -1.73469  -2.14286   0.67149 
 Bq                   -1.53061  -2.14286   0.5784 
 Bq                   -1.32653  -2.14286   0.48457 
 Bq                   -1.12245  -2.14286   0.39009 
 Bq                   -0.91837  -2.14286   0.29502 
 Bq                   -0.71429  -2.14286   0.19943 
 Bq                   -0.5102   -2.14286   0.10337 
 Bq                   -0.30612  -2.14286   0.00686 
 Bq                   -0.10204  -2.14286  -0.09006 
 Bq                    0.10204  -2.14286  -0.18739 
 Bq                    0.30612  -2.14286  -0.28513 
 Bq                    0.5102   -2.14286  -0.38329 
 Bq                    0.71429  -2.14286  -0.48188 
 Bq                    0.91837  -2.14286  -0.58095 
 Bq                    1.12245  -2.14286  -0.68055 
 Bq                    1.32653  -2.14286  -0.78073 
 Bq                    1.53061  -2.14286  -0.88156 
 Bq                    1.73469  -2.14286  -0.98312 
 Bq                    1.93878  -2.14286  -1.08552 
 Bq                    2.14286  -2.14286  -1.18884 
 Bq                    2.34694  -2.14286  -1.29322 
 Bq                    2.55102  -2.14286  -1.39878 
 Bq                    2.7551   -2.14286  -1.50566 
 Bq                    2.95918  -2.14286  -1.61401 
 Bq                    3.16327  -2.14286  -1.72401 
 Bq                    3.36735  -2.14286  -1.83581 
 Bq                    3.57143  -2.14286  -1.94961 
 Bq                    3.77551  -2.14286  -2.06562 
 Bq                    3.97959  -2.14286  -2.18404 
 Bq                    4.18367  -2.14286  -2.30509 
 Bq                    4.38776  -2.14286  -2.42901 
 Bq                    4.59184  -2.14286  -2.55604 
 Bq                    4.79592  -2.14286  -2.68645 
 Bq                    5.       -2.14286  -2.8205 
 Bq                   -5.       -1.93878   1.69974 
 Bq                   -4.79592  -1.93878   1.64843 
 Bq                   -4.59184  -1.93878   1.59356 
 Bq                   -4.38776  -1.93878   1.53542 
 Bq                   -4.18367  -1.93878   1.47425 
 Bq                   -3.97959  -1.93878   1.4103 
 Bq                   -3.77551  -1.93878   1.3438 
 Bq                   -3.57143  -1.93878   1.27498 
 Bq                   -3.36735  -1.93878   1.20405 
 Bq                   -3.16327  -1.93878   1.13121 
 Bq                   -2.95918  -1.93878   1.05665 
 Bq                   -2.7551   -1.93878   0.98054 
 Bq                   -2.55102  -1.93878   0.90304 
 Bq                   -2.34694  -1.93878   0.82432 
 Bq                   -2.14286  -1.93878   0.7445 
 Bq                   -1.93878  -1.93878   0.66372 
 Bq                   -1.73469  -1.93878   0.5821 
 Bq                   -1.53061  -1.93878   0.49973 
 Bq                   -1.32653  -1.93878   0.41673 
 Bq                   -1.12245  -1.93878   0.33316 
 Bq                   -0.91837  -1.93878   0.24909 
 Bq                   -0.71429  -1.93878   0.1646 
 Bq                   -0.5102   -1.93878   0.07971 
 Bq                   -0.30612  -1.93878  -0.00552 
 Bq                   -0.10204  -1.93878  -0.09108 
 Bq                    0.10204  -1.93878  -0.17697 
 Bq                    0.30612  -1.93878  -0.26316 
 Bq                    0.5102   -1.93878  -0.34969 
 Bq                    0.71429  -1.93878  -0.43656 
 Bq                    0.91837  -1.93878  -0.52383 
 Bq                    1.12245  -1.93878  -0.61153 
 Bq                    1.32653  -1.93878  -0.69972 
 Bq                    1.53061  -1.93878  -0.78847 
 Bq                    1.73469  -1.93878  -0.87787 
 Bq                    1.93878  -1.93878  -0.96801 
 Bq                    2.14286  -1.93878  -1.05899 
 Bq                    2.34694  -1.93878  -1.15093 
 Bq                    2.55102  -1.93878  -1.24397 
 Bq                    2.7551   -1.93878  -1.33823 
 Bq                    2.95918  -1.93878  -1.43388 
 Bq                    3.16327  -1.93878  -1.53108 
 Bq                    3.36735  -1.93878  -1.63 
 Bq                    3.57143  -1.93878  -1.73083 
 Bq                    3.77551  -1.93878  -1.83377 
 Bq                    3.97959  -1.93878  -1.93904 
 Bq                    4.18367  -1.93878  -2.04685 
 Bq                    4.38776  -1.93878  -2.15744 
 Bq                    4.59184  -1.93878  -2.27105 
 Bq                    4.79592  -1.93878  -2.38795 
 Bq                    5.       -1.93878  -2.5084 
 Bq                   -5.       -1.73469   1.44879 
 Bq                   -4.79592  -1.73469   1.40699 
 Bq                   -4.59184  -1.73469   1.36173 
 Bq                   -4.38776  -1.73469   1.31326 
 Bq                   -4.18367  -1.73469   1.26184 
 Bq                   -3.97959  -1.73469   1.20773 
 Bq                   -3.77551  -1.73469   1.15115 
 Bq                   -3.57143  -1.73469   1.09233 
 Bq                   -3.36735  -1.73469   1.03149 
 Bq                   -3.16327  -1.73469   0.96881 
 Bq                   -2.95918  -1.73469   0.90448 
 Bq                   -2.7551   -1.73469   0.83869 
 Bq                   -2.55102  -1.73469   0.7716 
 Bq                   -2.34694  -1.73469   0.70335 
 Bq                   -2.14286  -1.73469   0.6341 
 Bq                   -1.93878  -1.73469   0.56397 
 Bq                   -1.73469  -1.73469   0.49307 
 Bq                   -1.53061  -1.73469   0.42151 
 Bq                   -1.32653  -1.73469   0.34939 
 Bq                   -1.12245  -1.73469   0.27678 
 Bq                   -0.91837  -1.73469   0.20377 
 Bq                   -0.71429  -1.73469   0.1304 
 Bq                   -0.5102   -1.73469   0.05672 
 Bq                   -0.30612  -1.73469  -0.01722 
 Bq                   -0.10204  -1.73469  -0.09142 
 Bq                    0.10204  -1.73469  -0.16585 
 Bq                    0.30612  -1.73469  -0.24051 
 Bq                    0.5102   -1.73469  -0.31543 
 Bq                    0.71429  -1.73469  -0.39061 
 Bq                    0.91837  -1.73469  -0.4661 
 Bq                    1.12245  -1.73469  -0.54195 
 Bq                    1.32653  -1.73469  -0.61821 
 Bq                    1.53061  -1.73469  -0.69494 
 Bq                    1.73469  -1.73469  -0.77225 
 Bq                    1.93878  -1.73469  -0.85021 
 Bq                    2.14286  -1.73469  -0.92894 
 Bq                    2.34694  -1.73469  -1.00854 
 Bq                    2.55102  -1.73469  -1.08916 
 Bq                    2.7551   -1.73469  -1.17093 
 Bq                    2.95918  -1.73469  -1.254 
 Bq                    3.16327  -1.73469  -1.33853 
 Bq                    3.36735  -1.73469  -1.42471 
 Bq                    3.57143  -1.73469  -1.51273 
 Bq                    3.77551  -1.73469  -1.60277 
 Bq                    3.97959  -1.73469  -1.69505 
 Bq                    4.18367  -1.73469  -1.7898 
 Bq                    4.38776  -1.73469  -1.88725 
 Bq                    4.59184  -1.73469  -1.98764 
 Bq                    4.79592  -1.73469  -2.09123 
 Bq                    5.       -1.73469  -2.1983 
 Bq                   -5.       -1.53061   1.19602 
 Bq                   -4.79592  -1.53061   1.16396 
 Bq                   -4.59184  -1.53061   1.12849 
 Bq                   -4.38776  -1.53061   1.0899 
 Bq                   -4.18367  -1.53061   1.04843 
 Bq                   -3.97959  -1.53061   1.00433 
 Bq                   -3.77551  -1.53061   0.95784 
 Bq                   -3.57143  -1.53061   0.90919 
 Bq                   -3.36735  -1.53061   0.85857 
 Bq                   -3.16327  -1.53061   0.80619 
 Bq                   -2.95918  -1.53061   0.75225 
 Bq                   -2.7551   -1.53061   0.6969 
 Bq                   -2.55102  -1.53061   0.64033 
 Bq                   -2.34694  -1.53061   0.58267 
 Bq                   -2.14286  -1.53061   0.52408 
 Bq                   -1.93878  -1.53061   0.46468 
 Bq                   -1.73469  -1.53061   0.40459 
 Bq                   -1.53061  -1.53061   0.34391 
 Bq                   -1.32653  -1.53061   0.28273 
 Bq                   -1.12245  -1.53061   0.22115 
 Bq                   -0.91837  -1.53061   0.15923 
 Bq                   -0.71429  -1.53061   0.09702 
 Bq                   -0.5102   -1.53061   0.03458 
 Bq                   -0.30612  -1.53061  -0.02806 
 Bq                   -0.10204  -1.53061  -0.09088 
 Bq                    0.10204  -1.53061  -0.15386 
 Bq                    0.30612  -1.53061  -0.217 
 Bq                    0.5102   -1.53061  -0.28032 
 Bq                    0.71429  -1.53061  -0.34384 
 Bq                    0.91837  -1.53061  -0.4076 
 Bq                    1.12245  -1.53061  -0.47163 
 Bq                    1.32653  -1.53061  -0.53601 
 Bq                    1.53061  -1.53061  -0.6008 
 Bq                    1.73469  -1.53061  -0.66608 
 Bq                    1.93878  -1.53061  -0.73194 
 Bq                    2.14286  -1.53061  -0.7985 
 Bq                    2.34694  -1.53061  -0.86587 
 Bq                    2.55102  -1.53061  -0.93418 
 Bq                    2.7551   -1.53061  -1.00356 
 Bq                    2.95918  -1.53061  -1.07418 
 Bq                    3.16327  -1.53061  -1.14619 
 Bq                    3.36735  -1.53061  -1.21978 
 Bq                    3.57143  -1.53061  -1.29512 
 Bq                    3.77551  -1.53061  -1.37242 
 Bq                    3.97959  -1.53061  -1.4519 
 Bq                    4.18367  -1.53061  -1.53376 
 Bq                    4.38776  -1.53061  -1.61825 
 Bq                    4.59184  -1.53061  -1.70562 
 Bq                    4.79592  -1.53061  -1.79611 
 Bq                    5.       -1.53061  -1.89001 
 Bq                   -5.       -1.32653   0.9416 
 Bq                   -4.79592  -1.32653   0.91949 
 Bq                   -4.59184  -1.32653   0.89403 
 Bq                   -4.38776  -1.32653   0.8655 
 Bq                   -4.18367  -1.32653   0.83417 
 Bq                   -3.97959  -1.32653   0.80027 
 Bq                   -3.77551  -1.32653   0.76404 
 Bq                   -3.57143  -1.32653   0.7257 
 Bq                   -3.36735  -1.32653   0.68547 
 Bq                   -3.16327  -1.32653   0.64354 
 Bq                   -2.95918  -1.32653   0.6001 
 Bq                   -2.7551   -1.32653   0.55533 
 Bq                   -2.55102  -1.32653   0.50939 
 Bq                   -2.34694  -1.32653   0.46244 
 Bq                   -2.14286  -1.32653   0.4146 
 Bq                   -1.93878  -1.32653   0.36603 
 Bq                   -1.73469  -1.32653   0.31682 
 Bq                   -1.53061  -1.32653   0.26709 
 Bq                   -1.32653  -1.32653   0.21692 
 Bq                   -1.12245  -1.32653   0.16641 
 Bq                   -0.91837  -1.32653   0.11563 
 Bq                   -0.71429  -1.32653   0.06462 
 Bq                   -0.5102   -1.32653   0.01344 
 Bq                   -0.30612  -1.32653  -0.03787 
 Bq                   -0.10204  -1.32653  -0.0893 
 Bq                    0.10204  -1.32653  -0.14083 
 Bq                    0.30612  -1.32653  -0.19246 
 Bq                    0.5102   -1.32653  -0.24421 
 Bq                    0.71429  -1.32653  -0.29609 
 Bq                    0.91837  -1.32653  -0.34814 
 Bq                    1.12245  -1.32653  -0.40042 
 Bq                    1.32653  -1.32653  -0.45297 
 Bq                    1.53061  -1.32653  -0.50587 
 Bq                    1.73469  -1.32653  -0.5592 
 Bq                    1.93878  -1.32653  -0.61305 
 Bq                    2.14286  -1.32653  -0.66753 
 Bq                    2.34694  -1.32653  -0.72276 
 Bq                    2.55102  -1.32653  -0.77886 
 Bq                    2.7551   -1.32653  -0.83598 
 Bq                    2.95918  -1.32653  -0.89427 
 Bq                    3.16327  -1.32653  -0.95389 
 Bq                    3.36735  -1.32653  -1.01502 
 Bq                    3.57143  -1.32653  -1.07785 
 Bq                    3.77551  -1.32653  -1.14258 
 Bq                    3.97959  -1.32653  -1.20941 
 Bq                    4.18367  -1.32653  -1.27857 
 Bq                    4.38776  -1.32653  -1.35029 
 Bq                    4.59184  -1.32653  -1.42483 
 Bq                    4.79592  -1.32653  -1.50243 
 Bq                    5.       -1.32653  -1.58337 
 Bq                   -5.       -1.12245   0.68568 
 Bq                   -4.79592  -1.12245   0.67372 
 Bq                   -4.59184  -1.12245   0.65848 
 Bq                   -4.38776  -1.12245   0.64022 
 Bq                   -4.18367  -1.12245   0.61921 
 Bq                   -3.97959  -1.12245   0.59568 
 Bq                   -3.77551  -1.12245   0.56988 
 Bq                   -3.57143  -1.12245   0.54203 
 Bq                   -3.36735  -1.12245   0.51233 
 Bq                   -3.16327  -1.12245   0.48099 
 Bq                   -2.95918  -1.12245   0.4482 
 Bq                   -2.7551   -1.12245   0.41412 
 Bq                   -2.55102  -1.12245   0.37893 
 Bq                   -2.34694  -1.12245   0.34278 
 Bq                   -2.14286  -1.12245   0.30581 
 Bq                   -1.93878  -1.12245   0.26814 
 Bq                   -1.73469  -1.12245   0.2299 
 Bq                   -1.53061  -1.12245   0.19119 
 Bq                   -1.32653  -1.12245   0.1521 
 Bq                   -1.12245  -1.12245   0.11272 
 Bq                   -0.91837  -1.12245   0.07312 
 Bq                   -0.71429  -1.12245   0.03334 
 Bq                   -0.5102   -1.12245  -0.00654 
 Bq                   -0.30612  -1.12245  -0.04652 
 Bq                   -0.10204  -1.12245  -0.08655 
 Bq                    0.10204  -1.12245  -0.12663 
 Bq                    0.30612  -1.12245  -0.16676 
 Bq                    0.5102   -1.12245  -0.20695 
 Bq                    0.71429  -1.12245  -0.24722 
 Bq                    0.91837  -1.12245  -0.2876 
 Bq                    1.12245  -1.12245  -0.32816 
 Bq                    1.32653  -1.12245  -0.36894 
 Bq                    1.53061  -1.12245  -0.41001 
 Bq                    1.73469  -1.12245  -0.45146 
 Bq                    1.93878  -1.12245  -0.49338 
 Bq                    2.14286  -1.12245  -0.53587 
 Bq                    2.34694  -1.12245  -0.57906 
 Bq                    2.55102  -1.12245  -0.62307 
 Bq                    2.7551   -1.12245  -0.66804 
 Bq                    2.95918  -1.12245  -0.71413 
 Bq                    3.16327  -1.12245  -0.76149 
 Bq                    3.36735  -1.12245  -0.81031 
 Bq                    3.57143  -1.12245  -0.86078 
 Bq                    3.77551  -1.12245  -0.91308 
 Bq                    3.97959  -1.12245  -0.96744 
 Bq                    4.18367  -1.12245  -1.02408 
 Bq                    4.38776  -1.12245  -1.08322 
 Bq                    4.59184  -1.12245  -1.14513 
 Bq                    4.79592  -1.12245  -1.21004 
 Bq                    5.       -1.12245  -1.27825 
 Bq                   -5.       -0.91837   0.42836 
 Bq                   -4.79592  -0.91837   0.42678 
 Bq                   -4.59184  -0.91837   0.42196 
 Bq                   -4.38776  -0.91837   0.41416 
 Bq                   -4.18367  -0.91837   0.40366 
 Bq                   -3.97959  -0.91837   0.39069 
 Bq                   -3.77551  -0.91837   0.37549 
 Bq                   -3.57143  -0.91837   0.35828 
 Bq                   -3.36735  -0.91837   0.33927 
 Bq                   -3.16327  -0.91837   0.31866 
 Bq                   -2.95918  -0.91837   0.29665 
 Bq                   -2.7551   -0.91837   0.2734 
 Bq                   -2.55102  -0.91837   0.24908 
 Bq                   -2.34694  -0.91837   0.22384 
 Bq                   -2.14286  -0.91837   0.19782 
 Bq                   -1.93878  -0.91837   0.17116 
 Bq                   -1.73469  -0.91837   0.14397 
 Bq                   -1.53061  -0.91837   0.11635 
 Bq                   -1.32653  -0.91837   0.08839 
 Bq                   -1.12245  -0.91837   0.06019 
 Bq                   -0.91837  -0.91837   0.03181 
 Bq                   -0.71429  -0.91837   0.00331 
 Bq                   -0.5102   -0.91837  -0.02526 
 Bq                   -0.30612  -0.91837  -0.05387 
 Bq                   -0.10204  -0.91837  -0.0825 
 Bq                    0.10204  -0.91837  -0.11113 
 Bq                    0.30612  -0.91837  -0.13976 
 Bq                    0.5102   -0.91837  -0.16841 
 Bq                    0.71429  -0.91837  -0.1971 
 Bq                    0.91837  -0.91837  -0.22586 
 Bq                    1.12245  -0.91837  -0.25474 
 Bq                    1.32653  -0.91837  -0.2838 
 Bq                    1.53061  -0.91837  -0.3131 
 Bq                    1.73469  -0.91837  -0.34274 
 Bq                    1.93878  -0.91837  -0.37281 
 Bq                    2.14286  -0.91837  -0.40341 
 Bq                    2.34694  -0.91837  -0.43465 
 Bq                    2.55102  -0.91837  -0.46667 
 Bq                    2.7551   -0.91837  -0.49961 
 Bq                    2.95918  -0.91837  -0.53362 
 Bq                    3.16327  -0.91837  -0.56887 
 Bq                    3.36735  -0.91837  -0.60552 
 Bq                    3.57143  -0.91837  -0.64377 
 Bq                    3.77551  -0.91837  -0.68382 
 Bq                    3.97959  -0.91837  -0.72588 
 Bq                    4.18367  -0.91837  -0.77017 
 Bq                    4.38776  -0.91837  -0.81693 
 Bq                    4.59184  -0.91837  -0.86639 
 Bq                    4.79592  -0.91837  -0.91883 
 Bq                    5.       -0.91837  -0.97451 
 Bq                   -5.       -0.71429   0.16976 
 Bq                   -4.79592  -0.71429   0.17877 
 Bq                   -4.59184  -0.71429   0.18457 
 Bq                   -4.38776  -0.71429   0.18744 
 Bq                   -4.18367  -0.71429   0.18763 
 Bq                   -3.97959  -0.71429   0.1854 
 Bq                   -3.77551  -0.71429   0.18096 
 Bq                   -3.57143  -0.71429   0.17456 
 Bq                   -3.36735  -0.71429   0.16639 
 Bq                   -3.16327  -0.71429   0.15666 
 Bq                   -2.95918  -0.71429   0.14556 
 Bq                   -2.7551   -0.71429   0.13326 
 Bq                   -2.55102  -0.71429   0.11992 
 Bq                   -2.34694  -0.71429   0.1057 
 Bq                   -2.14286  -0.71429   0.09074 
 Bq                   -1.93878  -0.71429   0.07517 
 Bq                   -1.73469  -0.71429   0.05911 
 Bq                   -1.53061  -0.71429   0.04265 
 Bq                   -1.32653  -0.71429   0.0259 
 Bq                   -1.12245  -0.71429   0.00893 
 Bq                   -0.91837  -0.71429  -0.00818 
 Bq                   -0.71429  -0.71429  -0.02537 
 Bq                   -0.5102   -0.71429  -0.0426 
 Bq                   -0.30612  -0.71429  -0.05984 
 Bq                   -0.10204  -0.71429  -0.07705 
 Bq                    0.10204  -0.71429  -0.09423 
 Bq                    0.30612  -0.71429  -0.11138 
 Bq                    0.5102   -0.71429  -0.1285 
 Bq                    0.71429  -0.71429  -0.14563 
 Bq                    0.91837  -0.71429  -0.1628 
 Bq                    1.12245  -0.71429  -0.18005 
 Bq                    1.32653  -0.71429  -0.19744 
 Bq                    1.53061  -0.71429  -0.21505 
 Bq                    1.73469  -0.71429  -0.23295 
 Bq                    1.93878  -0.71429  -0.25125 
 Bq                    2.14286  -0.71429  -0.27003 
 Bq                    2.34694  -0.71429  -0.28943 
 Bq                    2.55102  -0.71429  -0.30958 
 Bq                    2.7551   -0.71429  -0.3306 
 Bq                    2.95918  -0.71429  -0.35266 
 Bq                    3.16327  -0.71429  -0.37591 
 Bq                    3.36735  -0.71429  -0.40054 
 Bq                    3.57143  -0.71429  -0.42674 
 Bq                    3.77551  -0.71429  -0.45469 
 Bq                    3.97959  -0.71429  -0.48462 
 Bq                    4.18367  -0.71429  -0.51674 
 Bq                    4.38776  -0.71429  -0.5513 
 Bq                    4.59184  -0.71429  -0.58853 
 Bq                    4.79592  -0.71429  -0.62869 
 Bq                    5.       -0.71429  -0.67206 
 Bq                   -5.       -0.5102   -0.09005 
 Bq                   -4.79592  -0.5102   -0.07024 
 Bq                   -4.59184  -0.5102   -0.0536 
 Bq                   -4.38776  -0.5102   -0.03987 
 Bq                   -4.18367  -0.5102   -0.02879 
 Bq                   -3.97959  -0.5102   -0.02012 
 Bq                   -3.77551  -0.5102   -0.01361 
 Bq                   -3.57143  -0.5102   -0.00905 
 Bq                   -3.36735  -0.5102   -0.00622 
 Bq                   -3.16327  -0.5102   -0.00493 
 Bq                   -2.95918  -0.5102   -0.00499 
 Bq                   -2.7551   -0.5102   -0.00621 
 Bq                   -2.55102  -0.5102   -0.00845 
 Bq                   -2.34694  -0.5102   -0.01154 
 Bq                   -2.14286  -0.5102   -0.01535 
 Bq                   -1.93878  -0.5102   -0.01974 
 Bq                   -1.73469  -0.5102   -0.0246 
 Bq                   -1.53061  -0.5102   -0.02982 
 Bq                   -1.32653  -0.5102   -0.03531 
 Bq                   -1.12245  -0.5102   -0.04098 
 Bq                   -0.91837  -0.5102   -0.04678 
 Bq                   -0.71429  -0.5102   -0.05263 
 Bq                   -0.5102   -0.5102   -0.05849 
 Bq                   -0.30612  -0.5102   -0.06433 
 Bq                   -0.10204  -0.5102   -0.07012 
 Bq                    0.10204  -0.5102   -0.07585 
 Bq                    0.30612  -0.5102   -0.08152 
 Bq                    0.5102   -0.5102   -0.08714 
 Bq                    0.71429  -0.5102   -0.09274 
 Bq                    0.91837  -0.5102   -0.09834 
 Bq                    1.12245  -0.5102   -0.10401 
 Bq                    1.32653  -0.5102   -0.10979 
 Bq                    1.53061  -0.5102   -0.11576 
 Bq                    1.73469  -0.5102   -0.122 
 Bq                    1.93878  -0.5102   -0.1286 
 Bq                    2.14286  -0.5102   -0.13567 
 Bq                    2.34694  -0.5102   -0.14333 
 Bq                    2.55102  -0.5102   -0.1517 
 Bq                    2.7551   -0.5102   -0.16092 
 Bq                    2.95918  -0.5102   -0.17115 
 Bq                    3.16327  -0.5102   -0.18256 
 Bq                    3.36735  -0.5102   -0.19531 
 Bq                    3.57143  -0.5102   -0.20959 
 Bq                    3.77551  -0.5102   -0.22561 
 Bq                    3.97959  -0.5102   -0.24358 
 Bq                    4.18367  -0.5102   -0.26372 
 Bq                    4.38776  -0.5102   -0.28626 
 Bq                    4.59184  -0.5102   -0.31144 
 Bq                    4.79592  -0.5102   -0.33954 
 Bq                    5.       -0.5102   -0.37081 
 Bq                   -5.       -0.30612  -0.351 
 Bq                   -4.79592  -0.30612  -0.32017 
 Bq                   -4.59184  -0.30612  -0.2925 
 Bq                   -4.38776  -0.30612  -0.26771 
 Bq                   -4.18367  -0.30612  -0.24556 
 Bq                   -3.97959  -0.30612  -0.22579 
 Bq                   -3.77551  -0.30612  -0.20817 
 Bq                   -3.57143  -0.30612  -0.19248 
 Bq                   -3.36735  -0.30612  -0.17851 
 Bq                   -3.16327  -0.30612  -0.16606 
 Bq                   -2.95918  -0.30612  -0.15493 
 Bq                   -2.7551   -0.30612  -0.14496 
 Bq                   -2.55102  -0.30612  -0.13598 
 Bq                   -2.34694  -0.30612  -0.12783 
 Bq                   -2.14286  -0.30612  -0.12039 
 Bq                   -1.93878  -0.30612  -0.11351 
 Bq                   -1.73469  -0.30612  -0.10708 
 Bq                   -1.53061  -0.30612  -0.10099 
 Bq                   -1.32653  -0.30612  -0.09516 
 Bq                   -1.12245  -0.30612  -0.08949 
 Bq                   -0.91837  -0.30612  -0.08392 
 Bq                   -0.71429  -0.30612  -0.0784 
 Bq                   -0.5102   -0.30612  -0.07286 
 Bq                   -0.30612  -0.30612  -0.06728 
 Bq                   -0.10204  -0.30612  -0.06164 
 Bq                    0.10204  -0.30612  -0.05592 
 Bq                    0.30612  -0.30612  -0.05012 
 Bq                    0.5102   -0.30612  -0.04426 
 Bq                    0.71429  -0.30612  -0.03835 
 Bq                    0.91837  -0.30612  -0.03244 
 Bq                    1.12245  -0.30612  -0.02657 
 Bq                    1.32653  -0.30612  -0.02079 
 Bq                    1.53061  -0.30612  -0.01519 
 Bq                    1.73469  -0.30612  -0.00983 
 Bq                    1.93878  -0.30612  -0.00482 
 Bq                    2.14286  -0.30612  -0.00026 
 Bq                    2.34694  -0.30612   0.00373 
 Bq                    2.55102  -0.30612   0.00703 
 Bq                    2.7551   -0.30612   0.00949 
 Bq                    2.95918  -0.30612   0.01096 
 Bq                    3.16327  -0.30612   0.01127 
 Bq                    3.36735  -0.30612   0.01026 
 Bq                    3.57143  -0.30612   0.00772 
 Bq                    3.77551  -0.30612   0.00348 
 Bq                    3.97959  -0.30612  -0.0027 
 Bq                    4.18367  -0.30612  -0.01103 
 Bq                    4.38776  -0.30612  -0.02174 
 Bq                    4.59184  -0.30612  -0.03508 
 Bq                    4.79592  -0.30612  -0.05132 
 Bq                    5.       -0.30612  -0.07071 
 Bq                   -5.       -0.10204  -0.61306 
 Bq                   -4.79592  -0.10204  -0.57099 
 Bq                   -4.59184  -0.10204  -0.53207 
 Bq                   -4.38776  -0.10204  -0.49604 
 Bq                   -4.18367  -0.10204  -0.46262 
 Bq                   -3.97959  -0.10204  -0.43158 
 Bq                   -3.77551  -0.10204  -0.40269 
 Bq                   -3.57143  -0.10204  -0.37571 
 Bq                   -3.36735  -0.10204  -0.35044 
 Bq                   -3.16327  -0.10204  -0.32668 
 Bq                   -2.95918  -0.10204  -0.30423 
 Bq                   -2.7551   -0.10204  -0.28294 
 Bq                   -2.55102  -0.10204  -0.26262 
 Bq                   -2.34694  -0.10204  -0.24314 
 Bq                   -2.14286  -0.10204  -0.22434 
 Bq                   -1.93878  -0.10204  -0.2061 
 Bq                   -1.73469  -0.10204  -0.1883 
 Bq                   -1.53061  -0.10204  -0.17083 
 Bq                   -1.32653  -0.10204  -0.15361 
 Bq                   -1.12245  -0.10204  -0.13655 
 Bq                   -0.91837  -0.10204  -0.11958 
 Bq                   -0.71429  -0.10204  -0.10263 
 Bq                   -0.5102   -0.10204  -0.08568 
 Bq                   -0.30612  -0.10204  -0.06867 
 Bq                   -0.10204  -0.10204  -0.05158 
 Bq                    0.10204  -0.10204  -0.03441 
 Bq                    0.30612  -0.10204  -0.01716 
 Bq                    0.5102   -0.10204   0.00018 
 Bq                    0.71429  -0.10204   0.01756 
 Bq                    0.91837  -0.10204   0.03496 
 Bq                    1.12245  -0.10204   0.05233 
 Bq                    1.32653  -0.10204   0.0696 
 Bq                    1.53061  -0.10204   0.08672 
 Bq                    1.73469  -0.10204   0.1036 
 Bq                    1.93878  -0.10204   0.12014 
 Bq                    2.14286  -0.10204   0.13624 
 Bq                    2.34694  -0.10204   0.15178 
 Bq                    2.55102  -0.10204   0.16664 
 Bq                    2.7551   -0.10204   0.18066 
 Bq                    2.95918  -0.10204   0.19371 
 Bq                    3.16327  -0.10204   0.20561 
 Bq                    3.36735  -0.10204   0.21618 
 Bq                    3.57143  -0.10204   0.22525 
 Bq                    3.77551  -0.10204   0.23262 
 Bq                    3.97959  -0.10204   0.23806 
 Bq                    4.18367  -0.10204   0.24136 
 Bq                    4.38776  -0.10204   0.24229 
 Bq                    4.59184  -0.10204   0.24059 
 Bq                    4.79592  -0.10204   0.23602 
 Bq                    5.       -0.10204   0.22829 
 Bq                   -5.        0.10204  -0.8762 
 Bq                   -4.79592   0.10204  -0.82268 
 Bq                   -4.59184   0.10204  -0.77231 
 Bq                   -4.38776   0.10204  -0.72483 
 Bq                   -4.18367   0.10204  -0.67996 
 Bq                   -3.97959   0.10204  -0.63747 
 Bq                   -3.77551   0.10204  -0.59712 
 Bq                   -3.57143   0.10204  -0.5587 
 Bq                   -3.36735   0.10204  -0.52198 
 Bq                   -3.16327   0.10204  -0.48676 
 Bq                   -2.95918   0.10204  -0.45287 
 Bq                   -2.7551    0.10204  -0.42013 
 Bq                   -2.55102   0.10204  -0.38836 
 Bq                   -2.34694   0.10204  -0.35743 
 Bq                   -2.14286   0.10204  -0.32718 
 Bq                   -1.93878   0.10204  -0.29748 
 Bq                   -1.73469   0.10204  -0.26823 
 Bq                   -1.53061   0.10204  -0.23932 
 Bq                   -1.32653   0.10204  -0.21065 
 Bq                   -1.12245   0.10204  -0.18214 
 Bq                   -0.91837   0.10204  -0.15371 
 Bq                   -0.71429   0.10204  -0.12532 
 Bq                   -0.5102    0.10204  -0.09691 
 Bq                   -0.30612   0.10204  -0.06845 
 Bq                   -0.10204   0.10204  -0.03992 
 Bq                    0.10204   0.10204  -0.0113 
 Bq                    0.30612   0.10204   0.01741 
 Bq                    0.5102    0.10204   0.04619 
 Bq                    0.71429   0.10204   0.07502 
 Bq                    0.91837   0.10204   0.10387 
 Bq                    1.12245   0.10204   0.13269 
 Bq                    1.32653   0.10204   0.16142 
 Bq                    1.53061   0.10204   0.18999 
 Bq                    1.73469   0.10204   0.21831 
 Bq                    1.93878   0.10204   0.2463 
 Bq                    2.14286   0.10204   0.27385 
 Bq                    2.34694   0.10204   0.30084 
 Bq                    2.55102   0.10204   0.32715 
 Bq                    2.7551    0.10204   0.35262 
 Bq                    2.95918   0.10204   0.37712 
 Bq                    3.16327   0.10204   0.40047 
 Bq                    3.36735   0.10204   0.4225 
 Bq                    3.57143   0.10204   0.44302 
 Bq                    3.77551   0.10204   0.46183 
 Bq                    3.97959   0.10204   0.47872 
 Bq                    4.18367   0.10204   0.49348 
 Bq                    4.38776   0.10204   0.50585 
 Bq                    4.59184   0.10204   0.51561 
 Bq                    4.79592   0.10204   0.52248 
 Bq                    5.        0.10204   0.5262 
 Bq                   -5.        0.30612  -1.14042 
 Bq                   -4.79592   0.30612  -1.07524 
 Bq                   -4.59184   0.30612  -1.01322 
 Bq                   -4.38776   0.30612  -0.95408 
 Bq                   -4.18367   0.30612  -0.89758 
 Bq                   -3.97959   0.30612  -0.84346 
 Bq                   -3.77551   0.30612  -0.79149 
 Bq                   -3.57143   0.30612  -0.74145 
 Bq                   -3.36735   0.30612  -0.69313 
 Bq                   -3.16327   0.30612  -0.64633 
 Bq                   -2.95918   0.30612  -0.60085 
 Bq                   -2.7551    0.30612  -0.55653 
 Bq                   -2.55102   0.30612  -0.5132 
 Bq                   -2.34694   0.30612  -0.4707 
 Bq                   -2.14286   0.30612  -0.4289 
 Bq                   -1.93878   0.30612  -0.38767 
 Bq                   -1.73469   0.30612  -0.34689 
 Bq                   -1.53061   0.30612  -0.30646 
 Bq                   -1.32653   0.30612  -0.26627 
 Bq                   -1.12245   0.30612  -0.22626 
 Bq                   -0.91837   0.30612  -0.18634 
 Bq                   -0.71429   0.30612  -0.14646 
 Bq                   -0.5102    0.30612  -0.10658 
 Bq                   -0.30612   0.30612  -0.06665 
 Bq                   -0.10204   0.30612  -0.02666 
 Bq                    0.10204   0.30612   0.01342 
 Bq                    0.30612   0.30612   0.05356 
 Bq                    0.5102    0.30612   0.09378 
 Bq                    0.71429   0.30612   0.13403 
 Bq                    0.91837   0.30612   0.1743 
 Bq                    1.12245   0.30612   0.21452 
 Bq                    1.32653   0.30612   0.25464 
 Bq                    1.53061   0.30612   0.2946 
 Bq                    1.73469   0.30612   0.33431 
 Bq                    1.93878   0.30612   0.37367 
 Bq                    2.14286   0.30612   0.41258 
 Bq                    2.34694   0.30612   0.45092 
 Bq                    2.55102   0.30612   0.48857 
 Bq                    2.7551    0.30612   0.52538 
 Bq                    2.95918   0.30612   0.56119 
 Bq                    3.16327   0.30612   0.59586 
 Bq                    3.36735   0.30612   0.6292 
 Bq                    3.57143   0.30612   0.66101 
 Bq                    3.77551   0.30612   0.69112 
 Bq                    3.97959   0.30612   0.71929 
 Bq                    4.18367   0.30612   0.74531 
 Bq                    4.38776   0.30612   0.76895 
 Bq                    4.59184   0.30612   0.78996 
 Bq                    4.79592   0.30612   0.80807 
 Bq                    5.        0.30612   0.82303 
 Bq                   -5.        0.5102   -1.40575 
 Bq                   -4.79592   0.5102   -1.32869 
 Bq                   -4.59184   0.5102   -1.2548 
 Bq                   -4.38776   0.5102   -1.18382 
 Bq                   -4.18367   0.5102   -1.11549 
 Bq                   -3.97959   0.5102   -1.04957 
 Bq                   -3.77551   0.5102   -0.98581 
 Bq                   -3.57143   0.5102   -0.924 
 Bq                   -3.36735   0.5102   -0.86392 
 Bq                   -3.16327   0.5102   -0.80538 
 Bq                   -2.95918   0.5102   -0.74818 
 Bq                   -2.7551    0.5102   -0.69216 
 Bq                   -2.55102   0.5102   -0.63715 
 Bq                   -2.34694   0.5102   -0.58299 
 Bq                   -2.14286   0.5102   -0.52954 
 Bq                   -1.93878   0.5102   -0.47668 
 Bq                   -1.73469   0.5102   -0.42429 
 Bq                   -1.53061   0.5102   -0.37226 
 Bq                   -1.32653   0.5102   -0.3205 
 Bq                   -1.12245   0.5102   -0.26893 
 Bq                   -0.91837   0.5102   -0.21747 
 Bq                   -0.71429   0.5102   -0.16607 
 Bq                   -0.5102    0.5102   -0.11468 
 Bq                   -0.30612   0.5102   -0.06327 
 Bq                   -0.10204   0.5102   -0.01181 
 Bq                    0.10204   0.5102    0.03971 
 Bq                    0.30612   0.5102    0.09129 
 Bq                    0.5102    0.5102    0.14292 
 Bq                    0.71429   0.5102    0.19457 
 Bq                    0.91837   0.5102    0.24622 
 Bq                    1.12245   0.5102    0.2978 
 Bq                    1.32653   0.5102    0.34927 
 Bq                    1.53061   0.5102    0.40055 
 Bq                    1.73469   0.5102    0.45156 
 Bq                    1.93878   0.5102    0.50221 
 Bq                    2.14286   0.5102    0.55239 
 Bq                    2.34694   0.5102    0.60199 
 Bq                    2.55102   0.5102    0.65087 
 Bq                    2.7551    0.5102    0.69889 
 Bq                    2.95918   0.5102    0.74591 
 Bq                    3.16327   0.5102    0.79176 
 Bq                    3.36735   0.5102    0.83626 
 Bq                    3.57143   0.5102    0.87922 
 Bq                    3.77551   0.5102    0.92045 
 Bq                    3.97959   0.5102    0.95974 
 Bq                    4.18367   0.5102    0.99685 
 Bq                    4.38776   0.5102    1.03156 
 Bq                    4.59184   0.5102    1.06363 
 Bq                    4.79592   0.5102    1.09278 
 Bq                    5.        0.5102    1.11876 
 Bq                   -5.        0.71429  -1.67222 
 Bq                   -4.79592   0.71429  -1.58306 
 Bq                   -4.59184   0.71429  -1.49711 
 Bq                   -4.38776   0.71429  -1.41409 
 Bq                   -4.18367   0.71429  -1.33375 
 Bq                   -3.97959   0.71429  -1.25583 
 Bq                   -3.77551   0.71429  -1.18011 
 Bq                   -3.57143   0.71429  -1.10637 
 Bq                   -3.36735   0.71429  -1.03438 
 Bq                   -3.16327   0.71429  -0.96396 
 Bq                   -2.95918   0.71429  -0.89491 
 Bq                   -2.7551    0.71429  -0.82707 
 Bq                   -2.55102   0.71429  -0.76025 
 Bq                   -2.34694   0.71429  -0.69432 
 Bq                   -2.14286   0.71429  -0.62913 
 Bq                   -1.93878   0.71429  -0.56455 
 Bq                   -1.73469   0.71429  -0.50047 
 Bq                   -1.53061   0.71429  -0.43677 
 Bq                   -1.32653   0.71429  -0.37337 
 Bq                   -1.12245   0.71429  -0.31019 
 Bq                   -0.91837   0.71429  -0.24715 
 Bq                   -0.71429   0.71429  -0.18419 
 Bq                   -0.5102    0.71429  -0.12127 
 Bq                   -0.30612   0.71429  -0.05835 
 Bq                   -0.10204   0.71429   0.00458 
 Bq                    0.10204   0.71429   0.06756 
 Bq                    0.30612   0.71429   0.13056 
 Bq                    0.5102    0.71429   0.19358 
[...]
 67347,2.95918367,3.95695631\Bq,0,4.3877551,2.95918367,4.10988306\Bq,0,
 4.59183673,2.95918367,4.25924681\Bq,0,4.79591837,2.95918367,4.40478955
 \Bq,0,5.,2.95918367,4.54624156\Bq,0,-5.,3.16326531,-5.00168446\Bq,0,-4
 .79591837,3.16326531,-4.75061881\Bq,0,-4.59183673,3.16326531,-4.503778
 25\Bq,0,-4.3877551,3.16326531,-4.26089305\Bq,0,-4.18367347,3.16326531,
 -4.02170521\Bq,0,-3.97959184,3.16326531,-3.78596846\Bq,0,-3.7755102,3.
 16326531,-3.55344827\Bq,0,-3.57142857,3.16326531,-3.32392182\Bq,0,-3.3
 6734694,3.16326531,-3.09717801\Bq,0,-3.16326531,3.16326531,-2.8730175\
 Bq,0,-2.95918367,3.16326531,-2.65125264\Bq,0,-2.75510204,3.16326531,-2
 .43170753\Bq,0,-2.55102041,3.16326531,-2.21421799\Bq,0,-2.34693878,3.1
 6326531,-1.99863157\Bq,0,-2.14285714,3.16326531,-1.78480755\Bq,0,-1.93
 877551,3.16326531,-1.57261692\Bq,0,-1.73469388,3.16326531,-1.36194241\
 Bq,0,-1.53061224,3.16326531,-1.15267849\Bq,0,-1.32653061,3.16326531,-0
 .94473133\Bq,0,-1.12244898,3.16326531,-0.73801885\Bq,0,-0.91836735,3.1
 6326531,-0.53247067\Bq,0,-0.71428571,3.16326531,-0.32802818\Bq,0,-0.51
 020408,3.16326531,-0.12464445\Bq,0,-0.30612245,3.16326531,0.07771569\B
 q,0,-0.10204082,3.16326531,0.2790757\Bq,0,0.10204082,3.16326531,0.4794
 4731\Bq,0,0.30612245,3.16326531,0.6788305\Bq,0,0.51020408,3.16326531,0
 .87721357\Bq,0,0.71428571,3.16326531,1.07457305\Bq,0,0.91836735,3.1632
 6531,1.27087376\Bq,0,1.12244898,3.16326531,1.46606879\Bq,0,1.32653061,
 3.16326531,1.66009951\Bq,0,1.53061224,3.16326531,1.85289556\Bq,0,1.734
 69388,3.16326531,2.04437484\Bq,0,1.93877551,3.16326531,2.23444354\Bq,0
 ,2.14285714,3.16326531,2.42299612\Bq,0,2.34693878,3.16326531,2.6099153
 \Bq,0,2.55102041,3.16326531,2.79507209\Bq,0,2.75510204,3.16326531,2.97
 832576\Bq,0,2.95918367,3.16326531,3.15952386\Bq,0,3.16326531,3.1632653
 1,3.33850221\Bq,0,3.36734694,3.16326531,3.5150849\Bq,0,3.57142857,3.16
 326531,3.6890843\Bq,0,3.7755102,3.16326531,3.86030105\Bq,0,3.97959184,
 3.16326531,4.02852407\Bq,0,4.18367347,3.16326531,4.19353053\Bq,0,4.387
 7551,3.16326531,4.35508589\Bq,0,4.59183673,3.16326531,4.5129439\Bq,0,4
 .79591837,3.16326531,4.66684654\Bq,0,5.,3.16326531,4.8165241\Bq,0,-5.,
 3.36734694,-5.2959774\Bq,0,-4.79591837,3.36734694,-5.03002218\Bq,0,-4.
 59183673,3.36734694,-4.76843535\Bq,0,-4.3877551,3.36734694,-4.51094719
 \Bq,0,-4.18367347,3.36734694,-4.25729971\Bq,0,-3.97959184,3.36734694,-
 4.00724664\Bq,0,-3.7755102,3.36734694,-3.76055343\Bq,0,-3.57142857,3.3
 6734694,-3.51699728\Bq,0,-3.36734694,3.36734694,-3.27636708\Bq,0,-3.16
 326531,3.36734694,-3.03846349\Bq,0,-2.95918367,3.36734694,-2.80309887\
 Bq,0,-2.75510204,3.36734694,-2.5700973\Bq,0,-2.55102041,3.36734694,-2.
 33929463\Bq,0,-2.34693878,3.36734694,-2.11053838\Bq,0,-2.14285714,3.36
 734694,-1.88368784\Bq,0,-1.93877551,3.36734694,-1.65861401\Bq,0,-1.734
 69388,3.36734694,-1.43519961\Bq,0,-1.53061224,3.36734694,-1.21333911\B
 q,0,-1.32653061,3.36734694,-0.99293868\Bq,0,-1.12244898,3.36734694,-0.
 77391624\Bq,0,-0.91836735,3.36734694,-0.55620143\Bq,0,-0.71428571,3.36
 734694,-0.3397356\Bq,0,-0.51020408,3.36734694,-0.12447186\Bq,0,-0.3061
 2245,3.36734694,0.08962499\Bq,0,-0.10204082,3.36734694,0.30257839\Bq,0
 ,0.10204082,3.36734694,0.51440007\Bq,0,0.30612245,3.36734694,0.7250900
 3\Bq,0,0.51020408,3.36734694,0.93463655\Bq,0,0.71428571,3.36734694,1.1
 4301617\Bq,0,0.91836735,3.36734694,1.35019371\Bq,0,1.12244898,3.367346
 94,1.55612226\Bq,0,1.32653061,3.36734694,1.76074319\Bq,0,1.53061224,3.
 36734694,1.96398612\Bq,0,1.73469388,3.36734694,2.16576899\Bq,0,1.93877
 551,3.36734694,2.36599796\Bq,0,2.14285714,3.36734694,2.56456749\Bq,0,2
 .34693878,3.36734694,2.76136031\Bq,0,2.55102041,3.36734694,2.95624743\
 Bq,0,2.75510204,3.36734694,3.14908811\Bq,0,2.95918367,3.36734694,3.339
 72992\Bq,0,3.16326531,3.36734694,3.52800866\Bq,0,3.36734694,3.36734694
 ,3.71374843\Bq,0,3.57142857,3.36734694,3.8967616\Bq,0,3.7755102,3.3673
 4694,4.07684881\Bq,0,3.97959184,3.36734694,4.25379896\Bq,0,4.18367347,
 3.36734694,4.42738925\Bq,0,4.3877551,3.36734694,4.59738514\Bq,0,4.5918
 3673,3.36734694,4.76354035\Bq,0,4.79591837,3.36734694,4.92559688\Bq,0,
 5.,3.36734694,5.08328503\Bq,0,-5.,3.57142857,-5.59411704\Bq,0,-4.79591
 837,3.57142857,-5.31305727\Bq,0,-4.59183673,3.57142857,-5.03651816\Bq,
 0,-4.3877551,3.57142857,-4.76423\Bq,0,-4.18367347,3.57142857,-4.495934
 78\Bq,0,-3.97959184,3.57142857,-4.23138624\Bq,0,-3.7755102,3.57142857,
 -3.97034984\Bq,0,-3.57142857,3.57142857,-3.71260275\Bq,0,-3.36734694,3
 .57142857,-3.45793389\Bq,0,-3.16326531,3.57142857,-3.20614391\Bq,0,-2.
 95918367,3.57142857,-2.95704517\Bq,0,-2.75510204,3.57142857,-2.7104617
 5\Bq,0,-2.55102041,3.57142857,-2.46622949\Bq,0,-2.34693878,3.57142857,
 -2.22419594\Bq,0,-2.14285714,3.57142857,-1.98422035\Bq,0,-1.93877551,3
 .57142857,-1.74617375\Bq,0,-1.73469388,3.57142857,-1.50993885\Bq,0,-1.
 53061224,3.57142857,-1.27541011\Bq,0,-1.32653061,3.57142857,-1.0424937
 2\Bq,0,-1.12244898,3.57142857,-0.81110758\Bq,0,-0.91836735,3.57142857,
 -0.58118134\Bq,0,-0.71428571,3.57142857,-0.35265636\Bq,0,-0.51020408,3
 .57142857,-0.12548573\Bq,0,-0.30612245,3.57142857,0.10036573\Bq,0,-0.1
 0204082,3.57142857,0.32492148\Bq,0,0.10204082,3.57142857,0.54819324\Bq
 ,0,0.30612245,3.57142857,0.77018102\Bq,0,0.51020408,3.57142857,0.99087
 308\Bq,0,0.71428571,3.57142857,1.21024597\Bq,0,0.91836735,3.57142857,1
 .42826451\Bq,0,1.12244898,3.57142857,1.64488179\Bq,0,1.32653061,3.5714
 2857,1.86003918\Bq,0,1.53061224,3.57142857,2.07366631\Bq,0,1.73469388,
 3.57142857,2.28568109\Bq,0,1.93877551,3.57142857,2.49598971\Bq,0,2.142
 85714,3.57142857,2.70448663\Bq,0,2.34693878,3.57142857,2.91105457\Bq,0
 ,2.55102041,3.57142857,3.11556453\Bq,0,2.75510204,3.57142857,3.3178757
 9\Bq,0,2.95918367,3.57142857,3.5178359\Bq,0,3.16326531,3.57142857,3.71
 528068\Bq,0,3.36734694,3.57142857,3.91003422\Bq,0,3.57142857,3.5714285
 7,4.10190889\Bq,0,3.7755102,3.57142857,4.29070532\Bq,0,3.97959184,3.57
 142857,4.47621244\Bq,0,4.18367347,3.57142857,4.65820742\Bq,0,4.3877551
 ,3.57142857,4.83645572\Bq,0,4.59183673,3.57142857,5.01071108\Bq,0,4.79
 591837,3.57142857,5.1807155\Bq,0,5.,3.57142857,5.34619925\Bq,0,-5.,3.7
 755102,-5.89644876\Bq,0,-4.79591837,3.7755102,-5.60006947\Bq,0,-4.5918
 3673,3.7755102,-5.30837208\Bq,0,-4.3877551,3.7755102,-5.02108686\Bq,0,
 -4.18367347,3.7755102,-4.7379558\Bq,0,-3.97959184,3.7755102,-4.4587326
 5\Bq,0,-3.7755102,3.7755102,-4.18318287\Bq,0,-3.57142857,3.7755102,-3.
 91108362\Bq,0,-3.36734694,3.7755102,-3.64222384\Bq,0,-3.16326531,3.775
 5102,-3.37640415\Bq,0,-2.95918367,3.7755102,-3.11343693\Bq,0,-2.755102
 04,3.7755102,-2.85314627\Bq,0,-2.55102041,3.7755102,-2.59536799\Bq,0,-
 2.34693878,3.7755102,-2.33994963\Bq,0,-2.14285714,3.7755102,-2.0867504
 8\Bq,0,-1.93877551,3.7755102,-1.83564153\Bq,0,-1.73469388,3.7755102,-1
 .58650551\Bq,0,-1.53061224,3.7755102,-1.33923688\Bq,0,-1.32653061,3.77
 55102,-1.09374183\Bq,0,-1.12244898,3.7755102,-0.84993825\Bq,0,-0.91836
 735,3.7755102,-0.6077558\Bq,0,-0.71428571,3.7755102,-0.36713584\Bq,0,-
 0.51020408,3.7755102,-0.12803145\Bq,0,-0.30612245,3.7755102,0.10959255
 \Bq,0,-0.10204082,3.7755102,0.3457596\Bq,0,0.10204082,3.7755102,0.5804
 8144\Bq,0,0.30612245,3.7755102,0.81375807\Bq,0,0.51020408,3.7755102,1.
 04557775\Bq,0,0.71428571,3.7755102,1.27591704\Bq,0,0.91836735,3.775510
 2,1.50474076\Bq,0,1.12244898,3.7755102,1.73200198\Bq,0,1.32653061,3.77
 55102,1.95764209\Bq,0,1.53061224,3.7755102,2.18159072\Bq,0,1.73469388,
 3.7755102,2.40376577\Bq,0,1.93877551,3.7755102,2.62407343\Bq,0,2.14285
 714,3.7755102,2.84240816\Bq,0,2.34693878,3.7755102,3.05865269\Bq,0,2.5
 5102041,3.7755102,3.27267801\Bq,0,2.75510204,3.7755102,3.48434341\Bq,0
 ,2.95918367,3.7755102,3.69349642\Bq,0,3.16326531,3.7755102,3.89997288\
 Bq,0,3.36734694,3.7755102,4.10359688\Bq,0,3.57142857,3.7755102,4.30418
 077\Bq,0,3.7755102,3.7755102,4.50152521\Bq,0,3.97959184,3.7755102,4.69
 54191\Bq,0,4.18367347,3.7755102,4.88563963\Bq,0,4.3877551,3.7755102,5.
 07195226\Bq,0,4.59183673,3.7755102,5.25411071\Bq,0,4.79591837,3.775510
 2,5.431857\Bq,0,5.,3.7755102,5.6049214\Bq,0,-5.,3.97959184,-6.20333827
 \Bq,0,-4.79591837,3.97959184,-5.8914245\Bq,0,-4.59183673,3.97959184,-5
 .58436281\Bq,0,-4.3877551,3.97959184,-5.28188347\Bq,0,-4.18367347,3.97
 959184,-4.98372848\Bq,0,-3.97959184,3.97959184,-4.68965158\Bq,0,-3.775
 5102,3.97959184,-4.39941823\Bq,0,-3.57142857,3.97959184,-4.1128056\Bq,
 0,-3.36734694,3.97959184,-3.82960262\Bq,0,-3.16326531,3.97959184,-3.54
 960992\Bq,0,-2.95918367,3.97959184,-3.27263987\Bq,0,-2.75510204,3.9795
 9184,-2.99851656\Bq,0,-2.55102041,3.97959184,-2.72707581\Bq,0,-2.34693
 878,3.97959184,-2.45816517\Bq,0,-2.14285714,3.97959184,-2.19164392\Bq,
 0,-1.93877551,3.97959184,-1.92738306\Bq,0,-1.73469388,3.97959184,-1.66
 526531\Bq,0,-1.53061224,3.97959184,-1.40518513\Bq,0,-1.32653061,3.9795
 9184,-1.14704872\Bq,0,-1.12244898,3.97959184,-0.89077396\Bq,0,-0.91836
 735,3.97959184,-0.63629051\Bq,0,-0.71428571,3.97959184,-0.38353973\Bq,
 0,-0.51020408,3.97959184,-0.13247472\Bq,0,-0.30612245,3.97959184,0.116
 93973\Bq,0,-0.10204082,3.97959184,0.36472704\Bq,0,0.10204082,3.9795918
 4,0.61089896\Bq,0,0.30612245,3.97959184,0.85545548\Bq,0,0.51020408,3.9
 7959184,1.09838488\Bq,0,0.71428571,3.97959184,1.3396637\Bq,0,0.9183673
 5,3.97959184,1.57925675\Bq,0,1.12244898,3.97959184,1.81711714\Bq,0,1.3
 2653061,3.97959184,2.05318623\Bq,0,1.53061224,3.97959184,2.28739365\Bq
 ,0,1.73469388,3.97959184,2.51965731\Bq,0,1.93877551,3.97959184,2.74988
 34\Bq,0,2.14285714,3.97959184,2.97796637\Bq,0,2.34693878,3.97959184,3.
 20378896\Bq,0,2.55102041,3.97959184,3.42722216\Bq,0,2.75510204,3.97959
 184,3.64812525\Bq,0,2.95918367,3.97959184,3.86634577\Bq,0,3.16326531,3
 .97959184,4.08171956\Bq,0,3.36734694,3.97959184,4.2940707\Bq,0,3.57142
 857,3.97959184,4.50321155\Bq,0,3.7755102,3.97959184,4.70894276\Bq,0,3.
 97959184,3.97959184,4.91105325\Bq,0,4.18367347,3.97959184,5.10932018\B
 q,0,4.3877551,3.97959184,5.30350904\Bq,0,4.59183673,3.97959184,5.49337
 353\Bq,0,4.79591837,3.97959184,5.67865568\Bq,0,5.,3.97959184,5.8590857
 5\Bq,0,-5.,4.18367347,-6.51517159\Bq,0,-4.79591837,4.18367347,-6.18750
 837\Bq,0,-4.59183673,4.18367347,-5.86487637\Bq,0,-4.3877551,4.18367347
 ,-5.54700586\Bq,0,-4.18367347,4.18367347,-5.23363884\Bq,0,-3.97959184,
 4.18367347,-4.92452905\Bq,0,-3.7755102,4.18367347,-4.61944195\Bq,0,-3.
 57142857,4.18367347,-4.31815472\Bq,0,-3.36734694,4.18367347,-4.0204562
 6\Bq,0,-3.16326531,4.18367347,-3.72614724\Bq,0,-2.95918367,4.18367347,
 -3.43504\Bq,0,-2.75510204,4.18367347,-3.14695864\Bq,0,-2.55102041,4.18
 367347,-2.86173899\Bq,0,-2.34693878,4.18367347,-2.57922858\Bq,0,-2.142
 85714,4.18367347,-2.29928671\Bq,0,-1.93877551,4.18367347,-2.02178436\B
 q,0,-1.73469388,4.18367347,-1.74660427\Bq,0,-1.53061224,4.18367347,-1.
 47364089\Bq,0,-1.32653061,4.18367347,-1.20280041\Bq,0,-1.12244898,4.18
 367347,-0.93400073\Bq,0,-0.91836735,4.18367347,-0.6671715\Bq,0,-0.7142
 8571,4.18367347,-0.40225408\Bq,0,-0.51020408,4.18367347,-0.13920156\Bq
 ,0,-0.30612245,4.18367347,0.12202124\Bq,0,-0.10204082,4.18367347,0.381
 43777\Bq,0,0.10204082,4.18367347,0.63905977\Bq,0,0.30612245,4.18367347
 ,0.89488723\Bq,0,0.51020408,4.18367347,1.14890843\Bq,0,0.71428571,4.18
 367347,1.4010999\Bq,0,0.91836735,4.18367347,1.65142647\Bq,0,1.12244898
 ,4.18367347,1.89984124\Bq,0,1.32653061,4.18367347,2.14628556\Bq,0,1.53
 061224,4.18367347,2.39068907\Bq,0,1.73469388,4.18367347,2.63296969\Bq,
 0,1.93877551,4.18367347,2.8730336\Bq,0,2.14285714,4.18367347,3.1107752
 4\Bq,0,2.34693878,4.18367347,3.34607736\Bq,0,2.55102041,4.18367347,3.5
 7881095\Bq,0,2.75510204,4.18367347,3.80883529\Bq,0,2.95918367,4.183673
 47,4.03599793\Bq,0,3.16326531,4.18367347,4.26013469\Bq,0,3.36734694,4.
 18367347,4.48106965\Bq,0,3.57142857,4.18367347,4.6986152\Bq,0,3.775510
 2,4.18367347,4.91257196\Bq,0,3.97959184,4.18367347,5.12272885\Bq,0,4.1
 8367347,4.18367347,5.32886306\Bq,0,4.3877551,4.18367347,5.53074004\Bq,
 0,4.59183673,4.18367347,5.72811352\Bq,0,4.79591837,4.18367347,5.920725
 51\Bq,0,5.,4.18367347,6.10830629\Bq,0,-5.,4.3877551,-6.83235507\Bq,0,-
 4.79591837,4.3877551,-6.48872743\Bq,0,-4.59183673,4.3877551,-6.1503191
 \Bq,0,-4.3877551,4.3877551,-5.81686037\Bq,0,-4.18367347,4.3877551,-5.4
 8809322\Bq,0,-3.97959184,4.3877551,-5.1637714\Bq,0,-3.7755102,4.387755
 1,-4.84366037\Bq,0,-3.57142857,4.3877551,-4.5275373\Bq,0,-3.36734694,4
 .3877551,-4.21519111\Bq,0,-3.16326531,4.3877551,-3.90642244\Bq,0,-2.95
 918367,4.3877551,-3.60104366\Bq,0,-2.75510204,4.3877551,-3.29887886\Bq
 ,0,-2.55102041,4.3877551,-2.99976386\Bq,0,-2.34693878,4.3877551,-2.703
 5462\Bq,0,-2.14285714,4.3877551,-2.41008517\Bq,0,-1.93877551,4.3877551
 ,-2.11925177\Bq,0,-1.73469388,4.3877551,-1.83092872\Bq,0,-1.53061224,4
 .3877551,-1.54501049\Bq,0,-1.32653061,4.3877551,-1.26140324\Bq,0,-1.12
 244898,4.3877551,-0.9800249\Bq,0,-0.91836735,4.3877551,-0.70080511\Bq,
 0,-0.71428571,4.3877551,-0.42368522\Bq,0,-0.51020408,4.3877551,-0.1486
 1832\Bq,0,-0.30612245,4.3877551,0.12443075\Bq,0,-0.10204082,4.3877551,
 0.39548546\Bq,0,0.10204082,4.3877551,0.66455754\Bq,0,0.30612245,4.3877
 551,0.93164698\Bq,0,0.51020408,4.3877551,1.19674206\Bq,0,0.71428571,4.
 3877551,1.45981932\Bq,0,0.91836735,4.3877551,1.72084358\Bq,0,1.1224489
 8,4.3877551,1.97976794\Bq,0,1.32653061,4.3877551,2.23653375\Bq,0,1.530
 61224,4.3877551,2.49107066\Bq,0,1.73469388,4.3877551,2.74329658\Bq,0,1
 .93877551,4.3877551,2.99311768\Bq,0,2.14285714,4.3877551,3.24042843\Bq
 ,0,2.34693878,4.3877551,3.48511155\Bq,0,2.55102041,4.3877551,3.7270380
 5\Bq,0,2.75510204,4.3877551,3.96606721\Bq,0,2.95918367,4.3877551,4.202
 04656\Bq,0,3.16326531,4.3877551,4.43481193\Bq,0,3.36734694,4.3877551,4
 .66418741\Bq,0,3.57142857,4.3877551,4.88998538\Bq,0,3.7755102,4.387755
 1,5.11200646\Bq,0,3.97959184,4.3877551,5.33003958\Bq,0,4.18367347,4.38
 77551,5.54386191\Bq,0,4.3877551,4.3877551,5.75323892\Bq,0,4.59183673,4
 .3877551,5.95792433\Bq,0,4.79591837,4.3877551,6.15766016\Bq,0,5.,4.387
 7551,6.35217667\Bq,0,-5.,4.59183673,-7.15531536\Bq,0,-4.79591837,4.591
 83673,-6.79550833\Bq,0,-4.59183673,4.59183673,-6.44111767\Bq,0,-4.3877
 551,4.59183673,-6.09187365\Bq,0,-4.18367347,4.59183673,-5.74751828\Bq,
 0,-3.97959184,4.59183673,-5.40780529\Bq,0,-3.7755102,4.59183673,-5.072
 50014\Bq,0,-3.57142857,4.59183673,-4.74138001\Bq,0,-3.36734694,4.59183
 673,-4.41423381\Bq,0,-3.16326531,4.59183673,-4.09086219\Bq,0,-2.959183
 67,4.59183673,-3.77107751\Bq,0,-2.75510204,4.59183673,-3.45470387\Bq,0
 ,-2.55102041,4.59183673,-3.14157708\Bq,0,-2.34693878,4.59183673,-2.831
 54469\Bq,0,-2.14285714,4.59183673,-2.52446598\Bq,0,-1.93877551,4.59183
 673,-2.22021195\Bq,0,-1.73469388,4.59183673,-1.91866533\Bq,0,-1.530612
 24,4.59183673,-1.61972058\Bq,0,-1.32653061,4.59183673,-1.32328388\Bq,0
 ,-1.12244898,4.59183673,-1.02927313\Bq,0,-0.91836735,4.59183673,-0.737
 61798\Bq,0,-0.71428571,4.59183673,-0.4482598\Bq,0,-0.51020408,4.591836
 73,-0.16115166\Bq,0,-0.30612245,4.59183673,0.1237416\Bq,0,-0.10204082,
 4.59183673,0.40644345\Bq,0,0.10204082,4.59183673,0.6869656\Bq,0,0.3061
 2245,4.59183673,0.96530807\Bq,0,0.51020408,4.59183673,1.24145911\Bq,0,
 0.71428571,4.59183673,1.51539529\Bq,0,0.91836735,4.59183673,1.78708141
 \Bq,0,1.12244898,4.59183673,2.05647058\Bq,0,1.32653061,4.59183673,2.32
 350414\Bq,0,1.53061224,4.59183673,2.58811175\Bq,0,1.73469388,4.5918367
 3,2.8502113\Bq,0,1.93877551,4.59183673,3.109709\Bq,0,2.14285714,4.5918
 3673,3.36649928\Bq,0,2.34693878,4.59183673,3.62046488\Bq,0,2.55102041,
 4.59183673,3.8714768\Bq,0,2.75510204,4.59183673,4.11939432\Bq,0,2.9591
 8367,4.59183673,4.36406499\Bq,0,3.16326531,4.59183673,4.60532462\Bq,0,
 3.36734694,4.59183673,4.84299731\Bq,0,3.57142857,4.59183673,5.07689542
 \Bq,0,3.7755102,4.59183673,5.3068196\Bq,0,3.97959184,4.59183673,5.5325
 5876\Bq,0,4.18367347,4.59183673,5.75389008\Bq,0,4.3877551,4.59183673,5
 .97057902\Bq,0,4.59183673,4.59183673,6.18237932\Bq,0,4.79591837,4.5918
 3673,6.38903296\Bq,0,5.,4.59183673,6.59027025\Bq,0,-5.,4.79591837,-7.4
 8449943\Bq,0,-4.79591837,4.79591837,-7.10829805\Bq,0,-4.59183673,4.795
 91837,-6.73771904\Bq,0,-4.3877551,4.79591837,-6.37249269\Bq,0,-4.18367
 347,4.79591837,-6.01236099\Bq,0,-3.97959184,4.79591837,-5.65707769\Bq,
 0,-3.7755102,4.79591837,-5.30640824\Bq,0,-3.57142857,4.79591837,-4.960
 12982\Bq,0,-3.36734694,4.79591837,-4.61803135\Bq,0,-3.16326531,4.79591
 837,-4.27991346\Bq,0,-2.95918367,4.79591837,-3.94558853\Bq,0,-2.755102
 04,4.79591837,-3.61488064\Bq,0,-2.55102041,4.79591837,-3.28762562\Bq,0
 ,-2.34693878,4.79591837,-2.96367102\Bq,0,-2.14285714,4.79591837,-2.642
 8761\Bq,0,-1.93877551,4.79591837,-2.32511188\Bq,0,-1.73469388,4.795918
 37,-2.01026108\Bq,0,-1.53061224,4.79591837,-1.69821815\Bq,0,-1.3265306
 1,4.79591837,-1.38888929\Bq,0,-1.12244898,4.79591837,-1.08219239\Bq,0,
 -0.91836735,4.79591837,-0.77805711\Bq,0,-0.71428571,4.79591837,-0.4764
 2479\Bq,0,-0.51020408,4.79591837,-0.17724855\Bq,0,-0.30612245,4.795918
 37,0.11950682\Bq,0,-0.10204082,4.79591837,0.41386475\Bq,0,0.10204082,4
 .79591837,0.70583699\Bq,0,0.30612245,4.79591837,0.99542352\Bq,0,0.5102
 0408,4.79591837,1.28261262\Bq,0,0.71428571,4.79591837,1.56738084\Bq,0,
 0.91836735,4.79591837,1.849693\Bq,0,1.12244898,4.79591837,2.12950218\B
 q,0,1.32653061,4.79591837,2.40674976\Bq,0,1.53061224,4.79591837,2.6813
 6536\Bq,0,1.73469388,4.79591837,2.9532669\Bq,0,1.93877551,4.79591837,3
 .22236057\Bq,0,2.14285714,4.79591837,3.48854081\Bq,0,2.34693878,4.7959
 1837,3.75169037\Bq,0,2.55102041,4.79591837,4.01168023\Bq,0,2.75510204,
 4.79591837,4.26836968\Bq,0,2.95918367,4.79591837,4.52160626\Bq,0,3.163
 26531,4.79591837,4.77122579\Bq,0,3.36734694,4.79591837,5.01705238\Bq,0
 ,3.57142857,4.79591837,5.25889837\Bq,0,3.7755102,4.79591837,5.49656442
 \Bq,0,3.97959184,4.79591837,5.72983944\Bq,0,4.18367347,4.79591837,5.95
 85006\Bq,0,4.3877551,4.79591837,6.18231338\Bq,0,4.59183673,4.79591837,
 6.40103149\Bq,0,4.79591837,4.79591837,6.61439695\Bq,0,5.,4.79591837,6.
 82214004\Bq,0,-5.,5.,-7.82037458\Bq,0,-4.79591837,5.,-7.42756387\Bq,0,
 -4.59183673,5.,-7.04059051\Bq,0,-4.3877551,5.,-6.65918476\Bq,0,-4.1836
 7347,5.,-6.28308865\Bq,0,-3.97959184,5.,-5.9120559\Bq,0,-3.7755102,5.,
 -5.54585196\Bq,0,-3.57142857,5.,-5.18425403\Bq,0,-3.36734694,5.,-4.827
 05101\Bq,0,-3.16326531,5.,-4.47404354\Bq,0,-2.95918367,5.,-4.125044\Bq
 ,0,-2.75510204,5.,-3.77987648\Bq,0,-2.55102041,5.,-3.43837678\Bq,0,-2.
 34693878,5.,-3.10039248\Bq,0,-2.14285714,5.,-2.76578283\Bq,0,-1.938775
 51,5.,-2.43441884\Bq,0,-1.73469388,5.,-2.10618324\Bq,0,-1.53061224,5.,
 -1.78097049\Bq,0,-1.32653061,5.,-1.45868676\Bq,0,-1.12244898,5.,-1.139
 24998\Bq,0,-0.91836735,5.,-0.82258977\Bq,0,-0.71428571,5.,-0.5086475\B
 q,0,-0.51020408,5.,-0.19737627\Bq,0,-0.30612245,5.,0.11125911\Bq,0,-0.
 10204082,5.,0.4172821\Bq,0,0.10204082,5.,0.72070441\Bq,0,0.30612245,5.
 ,1.02152605\Bq,0,0.51020408,5.,1.31973529\Bq,0,0.71428571,5.,1.6153086
 9\Bq,0,0.91836735,5.,1.90821105\Bq,0,1.12244898,5.,2.19839547\Bq,0,1.3
 2653061,5.,2.48580331\Bq,0,1.53061224,5.,2.77036421\Bq,0,1.73469388,5.
 ,3.05199608\Bq,0,1.93877551,5.,3.33060511\Bq,0,2.14285714,5.,3.6060857
 4\Bq,0,2.34693878,5.,3.87832072\Bq,0,2.55102041,5.,4.14718104\Bq,0,2.7
 5510204,5.,4.41252597\Bq,0,2.95918367,5.,4.67420307\Bq,0,3.16326531,5.
 ,4.93204816\Bq,0,3.36734694,5.,5.18588532\Bq,0,3.57142857,5.,5.4355269
 3\Bq,0,3.7755102,5.,5.68077362\Bq,0,3.97959184,5.,5.92141431\Bq,0,4.18
 367347,5.,6.15722618\Bq,0,4.3877551,5.,6.38797469\Bq,0,4.59183673,5.,6
 .61341358\Bq,0,4.79591837,5.,6.83328484\Bq,0,5.,5.,7.04731875\\Version
 =EM64L-G09RevD.01\HF=-23266.1501813\RMSD=9.770e-09\Dipole=-0.0005257,0
 .000209,0.0036948\Quadrupole=2.1352864,2.6261133,-4.7613997,-0.0425569
 ,0.6524521,0.5294667\PG=C01 [X(C10As10N10)]\\@


 Money is a good servant but a bad master.
                        -- French Proverb
 Job cpu time:       0 days  2 hours  0 minutes  3.0 seconds.
 File lengths (MBytes):  RWF=    228 Int=      0 D2E=      0 Chk=     25 Scr=      1
 Normal termination of Gaussian 09 at Mon Nov 11 18:25:11 2019.
