 Entering Gaussian System, Link 0=g09
 Input=intmodes_P_DQ_sulflower8.gjf
 Output=intmodes_P_DQ_sulflower8.log
 Initial command:
 /opt/local/g09/l1.exe "/home/scratch/vidal/Gau-15359.inp" -scrdir="/home/scratch/vidal/"
 Default is to use a total of  16 processors:
                               16 via shared-memory
                                1 via Linda
 Entering Link 1 = /opt/local/g09/l1.exe PID=     15360.
  
 Copyright (c) 1988,1990,1992,1993,1995,1998,2003,2009,2013,
            Gaussian, Inc.  All Rights Reserved.
  
 This is part of the Gaussian(R) 09 program.  It is based on
 the Gaussian(R) 03 system (copyright 2003, Gaussian, Inc.),
 the Gaussian(R) 98 system (copyright 1998, Gaussian, Inc.),
 the Gaussian(R) 94 system (copyright 1995, Gaussian, Inc.),
 the Gaussian 92(TM) system (copyright 1992, Gaussian, Inc.),
 the Gaussian 90(TM) system (copyright 1990, Gaussian, Inc.),
 the Gaussian 88(TM) system (copyright 1988, Gaussian, Inc.),
 the Gaussian 86(TM) system (copyright 1986, Carnegie Mellon
 University), and the Gaussian 82(TM) system (copyright 1983,
 Carnegie Mellon University). Gaussian is a federally registered
 trademark of Gaussian, Inc.
  
 This software contains proprietary and confidential information,
 including trade secrets, belonging to Gaussian, Inc.
  
 This software is provided under written license and may be
 used, copied, transmitted, or stored only in accord with that
 written license.
  
 The following legend is applicable only to US Government
 contracts under FAR:
  
                    RESTRICTED RIGHTS LEGEND
  
 Use, reproduction and disclosure by the US Government is
 subject to restrictions as set forth in subparagraphs (a)
 and (c) of the Commercial Computer Software - Restricted
 Rights clause in FAR 52.227-19.
  
 Gaussian, Inc.
 340 Quinnipiac St., Bldg. 40, Wallingford CT 06492
  
  
 ---------------------------------------------------------------
 Warning -- This program may not be used in any manner that
 competes with the business of Gaussian, Inc. or will provide
 assistance to any competitor of Gaussian, Inc.  The licensee
 of this program is prohibited from giving any competitor of
 Gaussian, Inc. access to this program.  By using this program,
 the user acknowledges that Gaussian, Inc. is engaged in the
 business of creating and licensing software in the field of
 computational chemistry and represents and warrants to the
 licensee that it is not a competitor of Gaussian, Inc. and that
 it will not use this program in any manner prohibited above.
 ---------------------------------------------------------------
  

 Cite this work as:
 Gaussian 09, Revision D.01,
 M. J. Frisch, G. W. Trucks, H. B. Schlegel, G. E. Scuseria, 
 M. A. Robb, J. R. Cheeseman, G. Scalmani, V. Barone, B. Mennucci, 
 G. A. Petersson, H. Nakatsuji, M. Caricato, X. Li, H. P. Hratchian, 
 A. F. Izmaylov, J. Bloino, G. Zheng, J. L. Sonnenberg, M. Hada, 
 M. Ehara, K. Toyota, R. Fukuda, J. Hasegawa, M. Ishida, T. Nakajima, 
 Y. Honda, O. Kitao, H. Nakai, T. Vreven, J. A. Montgomery, Jr., 
 J. E. Peralta, F. Ogliaro, M. Bearpark, J. J. Heyd, E. Brothers, 
 K. N. Kudin, V. N. Staroverov, T. Keith, R. Kobayashi, J. Normand, 
 K. Raghavachari, A. Rendell, J. C. Burant, S. S. Iyengar, J. Tomasi, 
 M. Cossi, N. Rega, J. M. Millam, M. Klene, J. E. Knox, J. B. Cross, 
 V. Bakken, C. Adamo, J. Jaramillo, R. Gomperts, R. E. Stratmann, 
 O. Yazyev, A. J. Austin, R. Cammi, C. Pomelli, J. W. Ochterski, 
 R. L. Martin, K. Morokuma, V. G. Zakrzewski, G. A. Voth, 
 P. Salvador, J. J. Dannenberg, S. Dapprich, A. D. Daniels, 
 O. Farkas, J. B. Foresman, J. V. Ortiz, J. Cioslowski, 
 and D. J. Fox, Gaussian, Inc., Wallingford CT, 2013.
 
 ******************************************
 Gaussian 09:  EM64L-G09RevD.01 24-Apr-2013
                 9-Jun-2019 
 ******************************************
 ------------------------------------------------------------
 # freq=intmodes wb97xd nosymm def2svp integral=ultrafinegrid
 ------------------------------------------------------------
 1/10=4,18=20,30=1,38=1/1,3;
 2/9=110,12=2,15=1,17=6,18=5,40=1/2;
 3/5=43,7=101,11=2,16=1,25=1,30=1,71=2,74=-58,75=-5,140=1/1,2,3;
 4//1;
 5/5=2,38=5,98=1/2;
 8/6=4,10=90,11=11/1;
 11/6=1,8=1,9=11,15=111,16=1,31=1/1,2,10;
 10/6=1,31=1/2;
 6/7=2,8=2,9=2,10=2,18=1,28=1/1;
 7/8=21,10=1,25=1,30=1/1,2,3,16;
 1/10=4,18=20,30=1/3;
 99//99;
 -----
 Title
 -----
 Symbolic Z-matrix:
 Charge =  2 Multiplicity = 1
 C                    -1.66462   0.36697   2.26437 
 N                    -2.42448  -0.77032   2.25836 
 C                    -2.32096   1.59874   2.2759 
 C                    -1.78052  -2.08929   2.18881 
 C                    -3.77874  -0.71803   2.24526 
 C                    -0.19798   0.25807   2.2713 
 C                    -3.70895   1.66338   2.2536 
 H                    -1.74626   2.52153   2.30758 
 C                    -0.46483  -2.08364   2.92077 
 H                    -2.44808  -2.8274    2.64912 
 H                    -1.65297  -2.35405   1.12799 
 C                    -4.45402   0.48028   2.24839 
 H                    -4.29541  -1.67916   2.24404 
 N                     0.37898  -0.9693    2.46798 
 C                     0.63709   1.35745   2.09827 
 H                    -4.20837   2.63385   2.26801 
 H                     0.05983  -3.02664   2.72745 
 H                    -0.60612  -1.9829    4.00881 
 H                    -5.54419   0.48547   2.24675 
 C                     1.71883  -1.13734   2.42212 
 C                     2.01725   1.20377   2.07933 
 H                     0.21228   2.3447    1.93013 
 C                     2.56856  -0.07272   2.22103 
 H                     2.08298  -2.15419   2.5752 
 H                     2.65842   2.07579   1.94288 
 H                     3.64422  -0.24443   2.18854 
 C                    -2.0115   -1.86758  -1.20521 
 C                    -0.84746  -1.03136  -1.04526 
 P                    -3.48357  -0.96232  -1.28913 
 P                    -1.55094  -3.62064  -1.32598 
 C                     0.31767  -1.7455   -1.00562 
 C                    -1.19193   0.37424  -0.96319 
 C                    -2.61469   0.59131  -1.05363 
 C                     0.11114  -3.17645  -1.12035 
 C                     1.72345  -1.40671  -0.94437 
 C                    -0.47405   1.54249  -0.90343 
 P                    -3.05584   2.279    -1.03394 
 P                     1.69068  -4.05472  -1.15643 
 C                     2.43719  -0.24204  -0.94869 
 C                     2.57262  -2.58035  -0.99988 
 C                    -1.31443   2.71609  -0.90503 
 C                     0.93232   1.87734  -0.91939 
 C                     2.09788   1.16138  -0.94695 
 C                     3.87231  -0.45469  -0.99757 
 P                     4.32267  -2.129    -1.06024 
 P                    -0.40292   4.19549  -0.96358 
 C                     1.14863   3.30683  -0.94091 
 C                     3.27483   2.00671  -0.99716 
 P                     4.75454   1.10867  -1.07079 
 P                     2.83258   3.74831  -1.02812 
 
 Add virtual bond connecting atoms C27        and H11        Dist= 4.55D+00.

 GradGradGradGradGradGradGradGradGradGradGradGradGradGradGradGradGradGrad
 Berny optimization.
 Initialization pass.
                           ----------------------------
                           !    Initial Parameters    !
                           ! (Angstroms and Degrees)  !
 --------------------------                            --------------------------
 ! Name  Definition              Value          Derivative Info.                !
 --------------------------------------------------------------------------------
 ! R1    R(1,2)                  1.3678         calculate D2E/DX2 analytically  !
 ! R2    R(1,3)                  1.3958         calculate D2E/DX2 analytically  !
 ! R3    R(1,6)                  1.4707         calculate D2E/DX2 analytically  !
 ! R4    R(2,4)                  1.4694         calculate D2E/DX2 analytically  !
 ! R5    R(2,5)                  1.3553         calculate D2E/DX2 analytically  !
 ! R6    R(3,7)                  1.3897         calculate D2E/DX2 analytically  !
 ! R7    R(3,8)                  1.0876         calculate D2E/DX2 analytically  !
 ! R8    R(4,9)                  1.5056         calculate D2E/DX2 analytically  !
 ! R9    R(4,10)                 1.0965         calculate D2E/DX2 analytically  !
 ! R10   R(4,11)                 1.1008         calculate D2E/DX2 analytically  !
 ! R11   R(5,12)                 1.3755         calculate D2E/DX2 analytically  !
 ! R12   R(5,13)                 1.0912         calculate D2E/DX2 analytically  !
 ! R13   R(6,14)                 1.3704         calculate D2E/DX2 analytically  !
 ! R14   R(6,15)                 1.3914         calculate D2E/DX2 analytically  !
 ! R15   R(7,12)                 1.3982         calculate D2E/DX2 analytically  !
 ! R16   R(7,16)                 1.0915         calculate D2E/DX2 analytically  !
 ! R17   R(9,14)                 1.4693         calculate D2E/DX2 analytically  !
 ! R18   R(9,17)                 1.0963         calculate D2E/DX2 analytically  !
 ! R19   R(9,18)                 1.1018         calculate D2E/DX2 analytically  !
 ! R20   R(11,27)                2.4102         calculate D2E/DX2 analytically  !
 ! R21   R(12,19)                1.0902         calculate D2E/DX2 analytically  !
 ! R22   R(14,20)                1.3511         calculate D2E/DX2 analytically  !
 ! R23   R(15,21)                1.3888         calculate D2E/DX2 analytically  !
 ! R24   R(15,22)                1.0878         calculate D2E/DX2 analytically  !
 ! R25   R(20,23)                1.3769         calculate D2E/DX2 analytically  !
 ! R26   R(20,24)                1.0909         calculate D2E/DX2 analytically  !
 ! R27   R(21,23)                1.3977         calculate D2E/DX2 analytically  !
 ! R28   R(21,25)                1.0909         calculate D2E/DX2 analytically  !
 ! R29   R(23,26)                1.0898         calculate D2E/DX2 analytically  !
 ! R30   R(27,28)                1.4422         calculate D2E/DX2 analytically  !
 ! R31   R(27,29)                1.7302         calculate D2E/DX2 analytically  !
 ! R32   R(27,30)                1.8166         calculate D2E/DX2 analytically  !
 ! R33   R(28,31)                1.3672         calculate D2E/DX2 analytically  !
 ! R34   R(28,32)                1.4495         calculate D2E/DX2 analytically  !
 ! R35   R(29,33)                1.7956         calculate D2E/DX2 analytically  !
 ! R36   R(30,34)                1.7326         calculate D2E/DX2 analytically  !
 ! R37   R(31,34)                1.4503         calculate D2E/DX2 analytically  !
 ! R38   R(31,35)                1.4473         calculate D2E/DX2 analytically  !
 ! R39   R(32,33)                1.4421         calculate D2E/DX2 analytically  !
 ! R40   R(32,36)                1.3725         calculate D2E/DX2 analytically  !
 ! R41   R(33,37)                1.7445         calculate D2E/DX2 analytically  !
 ! R42   R(34,38)                1.8077         calculate D2E/DX2 analytically  !
 ! R43   R(35,39)                1.366          calculate D2E/DX2 analytically  !
 ! R44   R(35,40)                1.4497         calculate D2E/DX2 analytically  !
 ! R45   R(36,41)                1.4435         calculate D2E/DX2 analytically  !
 ! R46   R(36,42)                1.4458         calculate D2E/DX2 analytically  !
 ! R47   R(37,41)                1.8            calculate D2E/DX2 analytically  !
 ! R48   R(38,40)                1.7251         calculate D2E/DX2 analytically  !
 ! R49   R(39,43)                1.4439         calculate D2E/DX2 analytically  !
 ! R50   R(39,44)                1.4516         calculate D2E/DX2 analytically  !
 ! R51   R(40,45)                1.8083         calculate D2E/DX2 analytically  !
 ! R52   R(41,46)                1.7387         calculate D2E/DX2 analytically  !
 ! R53   R(42,43)                1.3682         calculate D2E/DX2 analytically  !
 ! R54   R(42,47)                1.4459         calculate D2E/DX2 analytically  !
 ! R55   R(43,48)                1.4499         calculate D2E/DX2 analytically  !
 ! R56   R(44,45)                1.7349         calculate D2E/DX2 analytically  !
 ! R57   R(44,49)                1.7966         calculate D2E/DX2 analytically  !
 ! R58   R(46,47)                1.7882         calculate D2E/DX2 analytically  !
 ! R59   R(47,50)                1.743          calculate D2E/DX2 analytically  !
 ! R60   R(48,49)                1.7325         calculate D2E/DX2 analytically  !
 ! R61   R(48,50)                1.7971         calculate D2E/DX2 analytically  !
 ! A1    A(2,1,3)              118.2026         calculate D2E/DX2 analytically  !
 ! A2    A(2,1,6)              119.5025         calculate D2E/DX2 analytically  !
 ! A3    A(3,1,6)              122.2924         calculate D2E/DX2 analytically  !
 ! A4    A(1,2,4)              120.205          calculate D2E/DX2 analytically  !
 ! A5    A(1,2,5)              121.5377         calculate D2E/DX2 analytically  !
 ! A6    A(4,2,5)              118.1686         calculate D2E/DX2 analytically  !
 ! A7    A(1,3,7)              120.7026         calculate D2E/DX2 analytically  !
 ! A8    A(1,3,8)              120.0367         calculate D2E/DX2 analytically  !
 ! A9    A(7,3,8)              119.26           calculate D2E/DX2 analytically  !
 ! A10   A(2,4,9)              110.8904         calculate D2E/DX2 analytically  !
 ! A11   A(2,4,10)             108.5152         calculate D2E/DX2 analytically  !
 ! A12   A(2,4,11)             108.1972         calculate D2E/DX2 analytically  !
 ! A13   A(9,4,10)             109.2961         calculate D2E/DX2 analytically  !
 ! A14   A(9,4,11)             111.602          calculate D2E/DX2 analytically  !
 ! A15   A(10,4,11)            108.2517         calculate D2E/DX2 analytically  !
 ! A16   A(2,5,12)             121.6106         calculate D2E/DX2 analytically  !
 ! A17   A(2,5,13)             116.0495         calculate D2E/DX2 analytically  !
 ! A18   A(12,5,13)            122.3361         calculate D2E/DX2 analytically  !
 ! A19   A(1,6,14)             119.1334         calculate D2E/DX2 analytically  !
 ! A20   A(1,6,15)             122.6448         calculate D2E/DX2 analytically  !
 ! A21   A(14,6,15)            118.2188         calculate D2E/DX2 analytically  !
 ! A22   A(3,7,12)             119.534          calculate D2E/DX2 analytically  !
 ! A23   A(3,7,16)             119.8764         calculate D2E/DX2 analytically  !
 ! A24   A(12,7,16)            120.5681         calculate D2E/DX2 analytically  !
 ! A25   A(4,9,14)             110.7867         calculate D2E/DX2 analytically  !
 ! A26   A(4,9,17)             109.2232         calculate D2E/DX2 analytically  !
 ! A27   A(4,9,18)             111.6156         calculate D2E/DX2 analytically  !
 ! A28   A(14,9,17)            108.855          calculate D2E/DX2 analytically  !
 ! A29   A(14,9,18)            107.9765         calculate D2E/DX2 analytically  !
 ! A30   A(17,9,18)            108.3096         calculate D2E/DX2 analytically  !
 ! A31   A(4,11,27)            150.1275         calculate D2E/DX2 analytically  !
 ! A32   A(5,12,7)             118.3966         calculate D2E/DX2 analytically  !
 ! A33   A(5,12,19)            119.6751         calculate D2E/DX2 analytically  !
 ! A34   A(7,12,19)            121.9283         calculate D2E/DX2 analytically  !
 ! A35   A(6,14,9)             118.7966         calculate D2E/DX2 analytically  !
 ! A36   A(6,14,20)            121.6021         calculate D2E/DX2 analytically  !
 ! A37   A(9,14,20)            119.055          calculate D2E/DX2 analytically  !
 ! A38   A(6,15,21)            120.71           calculate D2E/DX2 analytically  !
 ! A39   A(6,15,22)            120.1278         calculate D2E/DX2 analytically  !
 ! A40   A(21,15,22)           119.1034         calculate D2E/DX2 analytically  !
 ! A41   A(14,20,23)           121.3843         calculate D2E/DX2 analytically  !
 ! A42   A(14,20,24)           116.2439         calculate D2E/DX2 analytically  !
 ! A43   A(23,20,24)           122.3579         calculate D2E/DX2 analytically  !
 ! A44   A(15,21,23)           119.451          calculate D2E/DX2 analytically  !
 ! A45   A(15,21,25)           119.8221         calculate D2E/DX2 analytically  !
 ! A46   A(23,21,25)           120.7231         calculate D2E/DX2 analytically  !
 ! A47   A(20,23,21)           118.5246         calculate D2E/DX2 analytically  !
 ! A48   A(20,23,26)           119.4502         calculate D2E/DX2 analytically  !
 ! A49   A(21,23,26)           122.0213         calculate D2E/DX2 analytically  !
 ! A50   A(11,27,28)            83.6617         calculate D2E/DX2 analytically  !
 ! A51   A(11,27,29)           106.2077         calculate D2E/DX2 analytically  !
 ! A52   A(11,27,30)            80.3204         calculate D2E/DX2 analytically  !
 ! A53   A(28,27,29)           112.8756         calculate D2E/DX2 analytically  !
 ! A54   A(28,27,30)           111.2418         calculate D2E/DX2 analytically  !
 ! A55   A(29,27,30)           135.8412         calculate D2E/DX2 analytically  !
 ! A56   A(27,28,31)           112.843          calculate D2E/DX2 analytically  !
 ! A57   A(27,28,32)           112.1317         calculate D2E/DX2 analytically  !
 ! A58   A(31,28,32)           135.0254         calculate D2E/DX2 analytically  !
 ! A59   A(27,29,33)            91.9852         calculate D2E/DX2 analytically  !
 ! A60   A(27,30,34)            89.3077         calculate D2E/DX2 analytically  !
 ! A61   A(28,31,34)           113.0619         calculate D2E/DX2 analytically  !
 ! A62   A(28,31,35)           134.9689         calculate D2E/DX2 analytically  !
 ! A63   A(34,31,35)           111.8772         calculate D2E/DX2 analytically  !
 ! A64   A(28,32,33)           112.1408         calculate D2E/DX2 analytically  !
 ! A65   A(28,32,36)           134.7135         calculate D2E/DX2 analytically  !
 ! A66   A(33,32,36)           112.9948         calculate D2E/DX2 analytically  !
 ! A67   A(29,33,32)           110.8177         calculate D2E/DX2 analytically  !
 ! A68   A(29,33,37)           135.7398         calculate D2E/DX2 analytically  !
 ! A69   A(32,33,37)           113.2295         calculate D2E/DX2 analytically  !
 ! A70   A(30,34,31)           113.5113         calculate D2E/DX2 analytically  !
 ! A71   A(30,34,38)           135.34           calculate D2E/DX2 analytically  !
 ! A72   A(31,34,38)           110.8863         calculate D2E/DX2 analytically  !
 ! A73   A(31,35,39)           134.9883         calculate D2E/DX2 analytically  !
 ! A74   A(31,35,40)           112.1985         calculate D2E/DX2 analytically  !
 ! A75   A(39,35,40)           112.5869         calculate D2E/DX2 analytically  !
 ! A76   A(32,36,41)           112.798          calculate D2E/DX2 analytically  !
 ! A77   A(32,36,42)           134.8662         calculate D2E/DX2 analytically  !
 ! A78   A(41,36,42)           112.2112         calculate D2E/DX2 analytically  !
 ! A79   A(33,37,41)            89.4887         calculate D2E/DX2 analytically  !
 ! A80   A(34,38,40)            91.7003         calculate D2E/DX2 analytically  !
 ! A81   A(35,39,43)           134.9063         calculate D2E/DX2 analytically  !
 ! A82   A(35,39,44)           113.0651         calculate D2E/DX2 analytically  !
 ! A83   A(43,39,44)           112.01           calculate D2E/DX2 analytically  !
 ! A84   A(35,40,38)           113.3231         calculate D2E/DX2 analytically  !
 ! A85   A(35,40,45)           111.4746         calculate D2E/DX2 analytically  !
 ! A86   A(38,40,45)           134.8331         calculate D2E/DX2 analytically  !
 ! A87   A(36,41,37)           111.4627         calculate D2E/DX2 analytically  !
 ! A88   A(36,41,46)           112.7443         calculate D2E/DX2 analytically  !
 ! A89   A(37,41,46)           135.3477         calculate D2E/DX2 analytically  !
 ! A90   A(36,42,43)           135.0496         calculate D2E/DX2 analytically  !
 ! A91   A(36,42,47)           112.0032         calculate D2E/DX2 analytically  !
 ! A92   A(43,42,47)           112.93           calculate D2E/DX2 analytically  !
 ! A93   A(39,43,42)           135.1432         calculate D2E/DX2 analytically  !
 ! A94   A(39,43,48)           112.0791         calculate D2E/DX2 analytically  !
 ! A95   A(42,43,48)           112.7755         calculate D2E/DX2 analytically  !
 ! A96   A(39,44,45)           113.5296         calculate D2E/DX2 analytically  !
 ! A97   A(39,44,49)           111.0617         calculate D2E/DX2 analytically  !
 ! A98   A(45,44,49)           135.3013         calculate D2E/DX2 analytically  !
 ! A99   A(40,45,44)            89.3383         calculate D2E/DX2 analytically  !
 ! A100  A(41,46,47)            91.8111         calculate D2E/DX2 analytically  !
 ! A101  A(42,47,46)           111.2045         calculate D2E/DX2 analytically  !
 ! A102  A(42,47,50)           113.308          calculate D2E/DX2 analytically  !
 ! A103  A(46,47,50)           135.3782         calculate D2E/DX2 analytically  !
 ! A104  A(43,48,49)           113.1134         calculate D2E/DX2 analytically  !
 ! A105  A(43,48,50)           111.4591         calculate D2E/DX2 analytically  !
 ! A106  A(49,48,50)           135.3813         calculate D2E/DX2 analytically  !
 ! A107  A(44,49,48)            91.7147         calculate D2E/DX2 analytically  !
 ! A108  A(47,50,48)            89.5092         calculate D2E/DX2 analytically  !
 ! D1    D(3,1,2,4)            177.4092         calculate D2E/DX2 analytically  !
 ! D2    D(3,1,2,5)              0.8968         calculate D2E/DX2 analytically  !
 ! D3    D(6,1,2,4)             -3.1605         calculate D2E/DX2 analytically  !
 ! D4    D(6,1,2,5)           -179.673          calculate D2E/DX2 analytically  !
 ! D5    D(2,1,3,7)             -1.3182         calculate D2E/DX2 analytically  !
 ! D6    D(2,1,3,8)            178.3769         calculate D2E/DX2 analytically  !
 ! D7    D(6,1,3,7)            179.2684         calculate D2E/DX2 analytically  !
 ! D8    D(6,1,3,8)             -1.0365         calculate D2E/DX2 analytically  !
 ! D9    D(2,1,6,14)            -9.4409         calculate D2E/DX2 analytically  !
 ! D10   D(2,1,6,15)           171.1953         calculate D2E/DX2 analytically  !
 ! D11   D(3,1,6,14)           169.9652         calculate D2E/DX2 analytically  !
 ! D12   D(3,1,6,15)            -9.3986         calculate D2E/DX2 analytically  !
 ! D13   D(1,2,4,9)             33.9067         calculate D2E/DX2 analytically  !
 ! D14   D(1,2,4,10)           153.9614         calculate D2E/DX2 analytically  !
 ! D15   D(1,2,4,11)           -88.7956         calculate D2E/DX2 analytically  !
 ! D16   D(5,2,4,9)           -149.4649         calculate D2E/DX2 analytically  !
 ! D17   D(5,2,4,10)           -29.4102         calculate D2E/DX2 analytically  !
 ! D18   D(5,2,4,11)            87.8328         calculate D2E/DX2 analytically  !
 ! D19   D(1,2,5,12)            -0.5377         calculate D2E/DX2 analytically  !
 ! D20   D(1,2,5,13)          -179.8451         calculate D2E/DX2 analytically  !
 ! D21   D(4,2,5,12)          -177.1188         calculate D2E/DX2 analytically  !
 ! D22   D(4,2,5,13)             3.5737         calculate D2E/DX2 analytically  !
 ! D23   D(1,3,7,12)             1.3717         calculate D2E/DX2 analytically  !
 ! D24   D(1,3,7,16)           179.6957         calculate D2E/DX2 analytically  !
 ! D25   D(8,3,7,12)          -178.3258         calculate D2E/DX2 analytically  !
 ! D26   D(8,3,7,16)            -0.0017         calculate D2E/DX2 analytically  !
 ! D27   D(2,4,9,14)           -51.7252         calculate D2E/DX2 analytically  !
 ! D28   D(2,4,9,17)          -171.6227         calculate D2E/DX2 analytically  !
 ! D29   D(2,4,9,18)            68.6394         calculate D2E/DX2 analytically  !
 ! D30   D(10,4,9,14)         -171.3133         calculate D2E/DX2 analytically  !
 ! D31   D(10,4,9,17)           68.7892         calculate D2E/DX2 analytically  !
 ! D32   D(10,4,9,18)          -50.9488         calculate D2E/DX2 analytically  !
 ! D33   D(11,4,9,14)           68.9815         calculate D2E/DX2 analytically  !
 ! D34   D(11,4,9,17)          -50.916          calculate D2E/DX2 analytically  !
 ! D35   D(11,4,9,18)         -170.6539         calculate D2E/DX2 analytically  !
 ! D36   D(2,4,11,27)           -5.0309         calculate D2E/DX2 analytically  !
 ! D37   D(9,4,11,27)         -127.2986         calculate D2E/DX2 analytically  !
 ! D38   D(10,4,11,27)         112.3816         calculate D2E/DX2 analytically  !
 ! D39   D(2,5,12,7)             0.5575         calculate D2E/DX2 analytically  !
 ! D40   D(2,5,12,19)         -179.4431         calculate D2E/DX2 analytically  !
 ! D41   D(13,5,12,7)          179.8211         calculate D2E/DX2 analytically  !
 ! D42   D(13,5,12,19)          -0.1795         calculate D2E/DX2 analytically  !
 ! D43   D(1,6,14,9)           -11.6766         calculate D2E/DX2 analytically  !
 ! D44   D(1,6,14,20)          176.8826         calculate D2E/DX2 analytically  !
 ! D45   D(15,6,14,9)          167.7155         calculate D2E/DX2 analytically  !
 ! D46   D(15,6,14,20)          -3.7254         calculate D2E/DX2 analytically  !
 ! D47   D(1,6,15,21)         -178.4216         calculate D2E/DX2 analytically  !
 ! D48   D(1,6,15,22)           -1.234          calculate D2E/DX2 analytically  !
 ! D49   D(14,6,15,21)           2.2091         calculate D2E/DX2 analytically  !
 ! D50   D(14,6,15,22)         179.3966         calculate D2E/DX2 analytically  !
 ! D51   D(3,7,12,5)            -0.9679         calculate D2E/DX2 analytically  !
 ! D52   D(3,7,12,19)          179.0327         calculate D2E/DX2 analytically  !
 ! D53   D(16,7,12,5)         -179.2802         calculate D2E/DX2 analytically  !
 ! D54   D(16,7,12,19)           0.7205         calculate D2E/DX2 analytically  !
 ! D55   D(4,9,14,6)            42.3732         calculate D2E/DX2 analytically  !
 ! D56   D(4,9,14,20)         -145.9646         calculate D2E/DX2 analytically  !
 ! D57   D(17,9,14,6)          162.4907         calculate D2E/DX2 analytically  !
 ! D58   D(17,9,14,20)         -25.8471         calculate D2E/DX2 analytically  !
 ! D59   D(18,9,14,6)          -80.1347         calculate D2E/DX2 analytically  !
 ! D60   D(18,9,14,20)          91.5276         calculate D2E/DX2 analytically  !
 ! D61   D(4,11,27,28)          83.3772         calculate D2E/DX2 analytically  !
 ! D62   D(4,11,27,29)         -28.6485         calculate D2E/DX2 analytically  !
 ! D63   D(4,11,27,30)        -163.7465         calculate D2E/DX2 analytically  !
 ! D64   D(6,14,20,23)           2.2701         calculate D2E/DX2 analytically  !
 ! D65   D(6,14,20,24)        -179.0553         calculate D2E/DX2 analytically  !
 ! D66   D(9,14,20,23)        -169.1492         calculate D2E/DX2 analytically  !
 ! D67   D(9,14,20,24)           9.5254         calculate D2E/DX2 analytically  !
 ! D68   D(6,15,21,23)           0.7172         calculate D2E/DX2 analytically  !
 ! D69   D(6,15,21,25)        -179.989          calculate D2E/DX2 analytically  !
 ! D70   D(22,15,21,23)       -176.4988         calculate D2E/DX2 analytically  !
 ! D71   D(22,15,21,25)          2.795          calculate D2E/DX2 analytically  !
 ! D72   D(14,20,23,21)          0.772          calculate D2E/DX2 analytically  !
 ! D73   D(14,20,23,26)       -179.9358         calculate D2E/DX2 analytically  !
 ! D74   D(24,20,23,21)       -177.8206         calculate D2E/DX2 analytically  !
 ! D75   D(24,20,23,26)          1.4716         calculate D2E/DX2 analytically  !
 ! D76   D(15,21,23,20)         -2.2101         calculate D2E/DX2 analytically  !
 ! D77   D(15,21,23,26)        178.5169         calculate D2E/DX2 analytically  !
 ! D78   D(25,21,23,20)        178.5026         calculate D2E/DX2 analytically  !
 ! D79   D(25,21,23,26)         -0.7704         calculate D2E/DX2 analytically  !
 ! D80   D(11,27,28,31)         76.2688         calculate D2E/DX2 analytically  !
 ! D81   D(11,27,28,32)       -103.6875         calculate D2E/DX2 analytically  !
 ! D82   D(29,27,28,31)       -178.7831         calculate D2E/DX2 analytically  !
 ! D83   D(29,27,28,32)          1.2607         calculate D2E/DX2 analytically  !
 ! D84   D(30,27,28,31)         -0.7471         calculate D2E/DX2 analytically  !
 ! D85   D(30,27,28,32)        179.2966         calculate D2E/DX2 analytically  !
 ! D86   D(11,27,29,33)         87.9711         calculate D2E/DX2 analytically  !
 ! D87   D(28,27,29,33)         -1.9061         calculate D2E/DX2 analytically  !
 ! D88   D(30,27,29,33)       -179.278          calculate D2E/DX2 analytically  !
 ! D89   D(11,27,30,34)        -77.8257         calculate D2E/DX2 analytically  !
 ! D90   D(28,27,30,34)          1.4281         calculate D2E/DX2 analytically  !
 ! D91   D(29,27,30,34)        178.8302         calculate D2E/DX2 analytically  !
 ! D92   D(27,28,31,34)         -0.5655         calculate D2E/DX2 analytically  !
 ! D93   D(27,28,31,35)        175.5579         calculate D2E/DX2 analytically  !
 ! D94   D(32,28,31,34)        179.3771         calculate D2E/DX2 analytically  !
 ! D95   D(32,28,31,35)         -4.4995         calculate D2E/DX2 analytically  !
 ! D96   D(27,28,32,33)          0.3432         calculate D2E/DX2 analytically  !
 ! D97   D(27,28,32,36)       -174.7403         calculate D2E/DX2 analytically  !
 ! D98   D(31,28,32,33)       -179.5997         calculate D2E/DX2 analytically  !
 ! D99   D(31,28,32,36)          5.3168         calculate D2E/DX2 analytically  !
 ! D100  D(27,29,33,32)          2.0732         calculate D2E/DX2 analytically  !
 ! D101  D(27,29,33,37)        176.2093         calculate D2E/DX2 analytically  !
 ! D102  D(27,30,34,31)         -1.7572         calculate D2E/DX2 analytically  !
 ! D103  D(27,30,34,38)       -175.1557         calculate D2E/DX2 analytically  !
 ! D104  D(28,31,34,30)          1.7192         calculate D2E/DX2 analytically  !
 ! D105  D(28,31,34,38)        176.7574         calculate D2E/DX2 analytically  !
 ! D106  D(35,31,34,30)       -175.3262         calculate D2E/DX2 analytically  !
 ! D107  D(35,31,34,38)         -0.288          calculate D2E/DX2 analytically  !
 ! D108  D(28,31,35,39)         -2.7569         calculate D2E/DX2 analytically  !
 ! D109  D(28,31,35,40)       -176.7103         calculate D2E/DX2 analytically  !
 ! D110  D(34,31,35,39)        173.3996         calculate D2E/DX2 analytically  !
 ! D111  D(34,31,35,40)         -0.5538         calculate D2E/DX2 analytically  !
 ! D112  D(28,32,33,29)         -1.7209         calculate D2E/DX2 analytically  !
 ! D113  D(28,32,33,37)       -177.2706         calculate D2E/DX2 analytically  !
 ! D114  D(36,32,33,29)        174.4856         calculate D2E/DX2 analytically  !
 ! D115  D(36,32,33,37)         -1.0642         calculate D2E/DX2 analytically  !
 ! D116  D(28,32,36,41)        176.7838         calculate D2E/DX2 analytically  !
 ! D117  D(28,32,36,42)          1.2823         calculate D2E/DX2 analytically  !
 ! D118  D(33,32,36,41)          1.7309         calculate D2E/DX2 analytically  !
 ! D119  D(33,32,36,42)       -173.7706         calculate D2E/DX2 analytically  !
 ! D120  D(29,33,37,41)       -173.9558         calculate D2E/DX2 analytically  !
 ! D121  D(32,33,37,41)          0.0792         calculate D2E/DX2 analytically  !
 ! D122  D(30,34,38,40)        174.3451         calculate D2E/DX2 analytically  !
 ! D123  D(31,34,38,40)          0.8239         calculate D2E/DX2 analytically  !
 ! D124  D(31,35,39,43)          3.89           calculate D2E/DX2 analytically  !
 ! D125  D(31,35,39,44)       -174.3683         calculate D2E/DX2 analytically  !
 ! D126  D(40,35,39,43)        177.8264         calculate D2E/DX2 analytically  !
 ! D127  D(40,35,39,44)         -0.4319         calculate D2E/DX2 analytically  !
 ! D128  D(31,35,40,38)          1.2067         calculate D2E/DX2 analytically  !
 ! D129  D(31,35,40,45)        175.2881         calculate D2E/DX2 analytically  !
 ! D130  D(39,35,40,38)       -174.1651         calculate D2E/DX2 analytically  !
 ! D131  D(39,35,40,45)         -0.0837         calculate D2E/DX2 analytically  !
 ! D132  D(32,36,41,37)         -1.655          calculate D2E/DX2 analytically  !
 ! D133  D(32,36,41,46)       -175.2005         calculate D2E/DX2 analytically  !
 ! D134  D(42,36,41,37)        174.9026         calculate D2E/DX2 analytically  !
 ! D135  D(42,36,41,46)          1.3571         calculate D2E/DX2 analytically  !
 ! D136  D(32,36,42,43)         -3.1529         calculate D2E/DX2 analytically  !
 ! D137  D(32,36,42,47)        175.183          calculate D2E/DX2 analytically  !
 ! D138  D(41,36,42,43)       -178.6735         calculate D2E/DX2 analytically  !
 ! D139  D(41,36,42,47)         -0.3376         calculate D2E/DX2 analytically  !
 ! D140  D(33,37,41,36)          0.8642         calculate D2E/DX2 analytically  !
 ! D141  D(33,37,41,46)        172.3813         calculate D2E/DX2 analytically  !
 ! D142  D(34,38,40,35)         -1.1562         calculate D2E/DX2 analytically  !
 ! D143  D(34,38,40,45)       -173.3797         calculate D2E/DX2 analytically  !
 ! D144  D(35,39,43,42)          1.2418         calculate D2E/DX2 analytically  !
 ! D145  D(35,39,43,48)       -178.1552         calculate D2E/DX2 analytically  !
 ! D146  D(44,39,43,42)        179.5134         calculate D2E/DX2 analytically  !
 ! D147  D(44,39,43,48)          0.1165         calculate D2E/DX2 analytically  !
 ! D148  D(35,39,44,45)          0.7935         calculate D2E/DX2 analytically  !
 ! D149  D(35,39,44,49)        177.6144         calculate D2E/DX2 analytically  !
 ! D150  D(43,39,44,45)       -177.8761         calculate D2E/DX2 analytically  !
 ! D151  D(43,39,44,49)         -1.0552         calculate D2E/DX2 analytically  !
 ! D152  D(35,40,45,44)          0.4434         calculate D2E/DX2 analytically  !
 ! D153  D(38,40,45,44)        172.7703         calculate D2E/DX2 analytically  !
 ! D154  D(36,41,46,47)         -1.5288         calculate D2E/DX2 analytically  !
 ! D155  D(37,41,46,47)       -172.9679         calculate D2E/DX2 analytically  !
 ! D156  D(36,42,43,39)         -1.3226         calculate D2E/DX2 analytically  !
 ! D157  D(36,42,43,48)        178.0712         calculate D2E/DX2 analytically  !
 ! D158  D(47,42,43,39)       -179.6474         calculate D2E/DX2 analytically  !
 ! D159  D(47,42,43,48)         -0.2535         calculate D2E/DX2 analytically  !
 ! D160  D(36,42,47,46)         -0.7858         calculate D2E/DX2 analytically  !
 ! D161  D(36,42,47,50)       -177.5824         calculate D2E/DX2 analytically  !
 ! D162  D(43,42,47,46)        177.9377         calculate D2E/DX2 analytically  !
 ! D163  D(43,42,47,50)          1.1412         calculate D2E/DX2 analytically  !
 ! D164  D(39,43,48,49)          0.9222         calculate D2E/DX2 analytically  !
 ! D165  D(39,43,48,50)        178.8391         calculate D2E/DX2 analytically  !
 ! D166  D(42,43,48,49)       -178.6165         calculate D2E/DX2 analytically  !
 ! D167  D(42,43,48,50)         -0.6995         calculate D2E/DX2 analytically  !
 ! D168  D(39,44,45,40)         -0.6867         calculate D2E/DX2 analytically  !
 ! D169  D(49,44,45,40)       -176.4673         calculate D2E/DX2 analytically  !
 ! D170  D(39,44,49,48)          1.3401         calculate D2E/DX2 analytically  !
 ! D171  D(45,44,49,48)        177.1946         calculate D2E/DX2 analytically  !
 ! D172  D(41,46,47,42)          1.321          calculate D2E/DX2 analytically  !
 ! D173  D(41,46,47,50)        177.1311         calculate D2E/DX2 analytically  !
 ! D174  D(42,47,50,48)         -1.2706         calculate D2E/DX2 analytically  !
 ! D175  D(46,47,50,48)       -177.0172         calculate D2E/DX2 analytically  !
 ! D176  D(43,48,49,44)         -1.2931         calculate D2E/DX2 analytically  !
 ! D177  D(50,48,49,44)       -178.5325         calculate D2E/DX2 analytically  !
 ! D178  D(43,48,50,47)          1.1154         calculate D2E/DX2 analytically  !
 ! D179  D(49,48,50,47)        178.3873         calculate D2E/DX2 analytically  !
 --------------------------------------------------------------------------------
 Trust Radius=3.00D-01 FncErr=1.00D-07 GrdErr=1.00D-07
 Number of steps in this run=      2 maximum allowed number of steps=      2.
 GradGradGradGradGradGradGradGradGradGradGradGradGradGradGradGradGradGrad

                          Input orientation:                          
 ---------------------------------------------------------------------
 Center     Atomic      Atomic             Coordinates (Angstroms)
 Number     Number       Type             X           Y           Z
 ---------------------------------------------------------------------
      1          6           0       -1.664624    0.366969    2.264368
      2          7           0       -2.424482   -0.770323    2.258356
      3          6           0       -2.320957    1.598736    2.275895
      4          6           0       -1.780524   -2.089288    2.188808
      5          6           0       -3.778739   -0.718032    2.245263
      6          6           0       -0.197977    0.258074    2.271301
      7          6           0       -3.708951    1.663381    2.253600
      8          1           0       -1.746262    2.521532    2.307584
      9          6           0       -0.464831   -2.083636    2.920771
     10          1           0       -2.448080   -2.827402    2.649115
     11          1           0       -1.652974   -2.354049    1.127994
     12          6           0       -4.454022    0.480276    2.248387
     13          1           0       -4.295414   -1.679155    2.244040
     14          7           0        0.378984   -0.969302    2.467979
     15          6           0        0.637085    1.357450    2.098272
     16          1           0       -4.208369    2.633853    2.268009
     17          1           0        0.059833   -3.026638    2.727450
     18          1           0       -0.606115   -1.982898    4.008807
     19          1           0       -5.544188    0.485467    2.246751
     20          6           0        1.718828   -1.137337    2.422121
     21          6           0        2.017251    1.203765    2.079329
     22          1           0        0.212279    2.344699    1.930131
     23          6           0        2.568563   -0.072716    2.221030
     24          1           0        2.082980   -2.154190    2.575197
     25          1           0        2.658417    2.075792    1.942877
     26          1           0        3.644218   -0.244425    2.188543
     27          6           0       -2.011495   -1.867582   -1.205210
     28          6           0       -0.847461   -1.031358   -1.045258
     29         15           0       -3.483569   -0.962320   -1.289131
     30         15           0       -1.550935   -3.620636   -1.325976
     31          6           0        0.317669   -1.745501   -1.005617
     32          6           0       -1.191933    0.374237   -0.963185
     33          6           0       -2.614688    0.591312   -1.053630
     34          6           0        0.111135   -3.176452   -1.120348
     35          6           0        1.723453   -1.406710   -0.944373
     36          6           0       -0.474048    1.542493   -0.903433
     37         15           0       -3.055838    2.279003   -1.033936
     38         15           0        1.690675   -4.054719   -1.156427
     39          6           0        2.437194   -0.242039   -0.948694
     40          6           0        2.572620   -2.580351   -0.999875
     41          6           0       -1.314434    2.716086   -0.905026
     42          6           0        0.932321    1.877338   -0.919393
     43          6           0        2.097880    1.161375   -0.946949
     44          6           0        3.872307   -0.454691   -0.997570
     45         15           0        4.322670   -2.128995   -1.060242
     46         15           0       -0.402924    4.195487   -0.963577
     47          6           0        1.148633    3.306833   -0.940913
     48          6           0        3.274832    2.006715   -0.997160
     49         15           0        4.754539    1.108667   -1.070795
     50         15           0        2.832576    3.748307   -1.028119
 ---------------------------------------------------------------------
                    Distance matrix (angstroms):
                    1          2          3          4          5
     1  C    0.000000
     2  N    1.367791   0.000000
     3  C    1.395764   2.371385   0.000000
     4  C    2.460151   1.469417   3.728428   0.000000
     5  C    2.376357   1.355329   2.737422   2.424127   0.000000
     6  C    1.470700   2.452569   2.510864   2.832202   3.711511
     7  C    2.420759   2.751872   1.389677   4.219663   2.382450
     8  H    2.156542   3.361356   1.087580   4.612477   3.824869
     9  C    2.806391   2.450269   4.173839   1.505606   3.647351
    10  H    3.311471   2.093997   4.443664   1.096506   2.526498
    11  H    2.948800   2.093115   4.169939   1.100770   2.905808
    12  C    2.791744   2.383932   2.408667   3.708612   1.375485
    13  H    3.332881   2.080040   3.826756   2.548712   1.091197
    14  N    2.450186   2.818325   3.731139   2.448628   4.171259
    15  C    2.511276   3.731787   2.973177   4.211061   4.881468
    16  H    3.407259   3.843275   2.152639   5.311192   3.379383
    17  H    3.834679   3.388632   5.221700   2.134403   4.505197
    18  H    3.112135   2.800156   4.332640   2.168629   3.843893
    19  H    3.881413   3.362991   3.410196   4.560470   2.136638
    20  C    3.706153   4.162756   4.881326   3.634021   5.516370
    21  C    3.780300   4.863956   4.360584   5.027850   6.108546
    22  H    2.746979   4.094338   2.663325   4.868102   5.040620
    23  C    4.256181   5.041681   5.167608   4.793971   6.380068
    24  H    4.527405   4.725748   5.793850   3.883320   6.044101
    25  H    4.659626   5.834017   5.013247   6.092009   7.023807
    26  H    5.344470   6.091844   6.244052   5.729864   7.438267
    27  C    4.141438   3.656614   4.922318   3.409085   4.043560
    28  C    3.684657   3.670014   4.485381   3.528315   4.417929
    29  P    4.207484   3.707181   4.540934   4.033172   3.555101
    30  P    5.366981   4.662060   6.388134   3.840761   5.112922
    31  C    4.368617   4.373086   5.377229   3.837311   5.329585
    32  C    3.261991   3.634215   3.642215   4.043570   4.263655
    33  C    3.458621   3.586012   3.490977   4.288922   3.735250
    34  C    5.212049   4.861528   6.344443   3.963687   5.701078
    35  C    4.992096   5.278999   5.979974   4.749799   6.397044
    36  C    3.582498   4.376096   3.677277   4.945570   5.093647
    37  P    4.058344   4.531687   3.458004   5.576242   4.500883
    38  P    6.520061   6.275549   7.735346   5.206029   7.253928
    39  C    5.245910   5.848089   6.035431   5.571839   7.004695
    40  C    6.107063   6.234044   7.220979   5.418367   7.371493
    41  C    3.960561   4.836759   3.518497   5.734167   5.271649
    42  C    4.377405   5.326943   4.568512   5.723160   6.240599
    43  C    5.009997   5.870025   5.486723   5.953302   6.946729
    44  C    6.478655   7.095790   7.299908   6.691742   8.314074
    45  P    7.289071   7.640886   8.316464   6.914252   8.862844
    46  P    5.164210   6.255143   4.573417   7.164755   6.770188
    47  C    5.179869   6.294893   5.030259   6.891534   7.115494
    48  C    6.142032   7.126886   6.495552   7.244602   8.227419
    49  P    7.271800   8.133400   7.842394   7.972388   9.335411
    50  P    6.519105   7.671740   6.488148   8.105975   8.623961
                    6          7          8          9         10
     6  C    0.000000
     7  C    3.781817   0.000000
     8  H    2.742580   2.142775   0.000000
     9  C    2.444714   5.000957   4.819298   0.000000
    10  H    3.837430   4.681171   5.405579   2.135477   0.000000
    11  H    3.201149   4.651212   5.017113   2.167685   1.780468
    12  C    4.261903   1.398176   3.391489   4.789508   3.889103
    13  H    4.532393   3.393608   4.914060   3.910874   2.212510
    14  N    1.370408   4.867052   4.090027   1.469280   3.387866
    15  C    1.391364   4.359558   2.660684   3.705644   5.228256
    16  H    4.661285   1.091532   2.464985   6.057630   5.750580
    17  H    3.326240   6.035275   5.849825   1.096311   2.517034
    18  H    2.864866   5.099382   4.948129   1.101786   2.440243
    19  H    5.351101   2.180739   4.309699   5.731881   4.552239
    20  C    2.375723   6.110090   5.040564   2.431563   4.502329
    21  C    2.416282   5.747261   3.994076   4.204255   6.042693
    22  H    2.153767   3.993103   2.002404   4.588028   5.860467
    23  C    2.786699   6.513238   5.035408   3.706065   5.739186
    24  H    3.333787   6.944331   6.049553   2.572108   4.581395
    25  H    3.401610   6.388271   4.442172   5.292617   7.114520
    26  H    3.875799   7.596911   6.059865   4.561046   6.633249
    27  C    4.460201   5.226129   5.628001   4.411640   3.995958
    28  C    3.617185   5.131492   4.967134   4.121053   4.408645
    29  P    4.996114   4.415433   5.300172   5.300321   4.478901
    30  P    5.460338   6.737302   7.139127   4.645089   4.151558
    31  C    3.875357   6.201342   5.783138   4.017856   4.709240
    32  C    3.385756   4.283104   3.951719   4.653486   4.987696
    33  C    4.123919   3.644793   3.972112   5.251009   5.042389
    34  C    4.836817   7.028554   6.904177   4.225710   4.569493
    35  C    4.099263   7.011669   6.168082   4.492900   5.686230
    36  C    3.435824   4.521733   3.589941   5.270051   5.967695
    37  P    4.814158   3.407850   3.597161   6.433167   6.325315
    38  P    5.823788   8.572101   8.188955   5.015468   5.754802
    39  C    4.190776   7.187518   5.978459   5.175518   6.595016
    40  C    5.141348   8.249394   7.457965   4.984406   6.211569
    41  C    4.168615   4.101075   3.247336   6.196441   6.681866
    42  C    3.752348   5.626284   4.243015   5.691064   6.804112
    43  C    4.055126   6.649422   5.217225   5.661876   7.036176
    44  C    5.268848   8.516561   7.165910   6.067753   7.673028
    45  P    6.101928   9.480011   8.354735   6.226611   7.751784
    46  P    5.099967   5.262281   3.912439   7.383724   8.158136
    47  C    4.628888   6.041686   4.421521   6.824443   7.965770
    48  C    5.079467   7.710937   6.033055   6.787211   8.331610
    49  P    6.034942   9.109883   7.461236   7.305150   9.011553
    50  P    5.679098   7.609742   5.796348   7.776772   9.200398
                   11         12         13         14         15
    11  H    0.000000
    12  C    4.139390   0.000000
    13  H    2.946783   2.165252   0.000000
    14  N    2.800346   5.050489   4.733290   0.000000
    15  C    4.467777   5.168301   5.794115   2.370037   0.000000
    16  H    5.719165   2.167631   4.313953   5.836653   5.013625
    17  H    2.438102   5.736099   4.584493   2.098050   4.466465
    18  H    3.087515   4.896192   4.100925   2.090920   4.043960
    19  H    4.945302   1.090180   2.499006   6.103217   6.244240
    20  C    3.811063   6.383646   6.041224   1.351118   2.738432
    21  C    5.199387   6.513785   6.941765   2.749034   1.388825
    22  H    5.118674   5.035050   6.050557   3.361499   1.087838
    23  C    4.921441   7.044377   7.049493   2.378888   2.406460
    24  H    4.011445   7.055467   6.404626   2.078234   3.827491
    25  H    6.235032   7.295601   7.908609   3.839810   2.150801
    26  H    5.799614   8.130822   8.068413   3.356380   3.408372
    27  C    2.410193   4.837945   4.141149   4.473658   5.322481
    28  C    2.668593   5.112770   4.809106   3.721673   4.218064
    29  P    3.336238   3.941687   3.695435   5.388436   5.816839
    30  P    2.763444   6.166155   4.903726   5.014803   6.426060
    31  C    2.967501   6.189641   5.643156   3.559791   4.400507
    32  C    3.468304   4.578937   4.912668   4.005716   3.699261
    33  C    3.789397   3.781375   4.342175   4.878454   4.592982
    34  C    2.973797   6.749866   5.742707   4.221297   5.585016
    35  C    4.073379   7.205250   6.816668   3.693653   4.251878
    36  C    4.549681   5.186759   5.906644   4.289895   3.206102
    37  P    5.301617   3.995495   5.286652   5.883273   4.929266
    38  P    4.392135   8.361593   7.282839   4.937272   6.402710
    39  C    5.050019   7.630984   7.588601   4.054478   3.883653
    40  C    4.736527   8.324202   7.648858   4.408348   5.371321
    41  C    5.473029   4.979947   6.174221   5.275122   3.830681
    42  C    5.364716   6.403070   7.070019   4.459129   3.076321
    43  C    5.543690   7.321304   7.689293   4.376771   3.383155
    44  C    6.217259   8.985441   8.872374   4.947541   4.830606
    45  P    6.367680   9.735792   9.240780   5.417185   5.976207
    46  P    6.988112   6.366388   7.742849   6.249960   4.302440
    47  C    6.646425   7.039233   8.040003   5.522521   3.646700
    48  C    6.914898   8.520492   9.022175   5.408309   4.118368
    49  P    7.607976   9.808641  10.033032   5.998863   5.201760
    50  P    7.874499   8.631919   9.537956   6.363855   4.506739
                   16         17         18         19         20
    16  H    0.000000
    17  H    7.104210   0.000000
    18  H    6.109092   1.781784   0.000000
    19  H    2.529906   6.631064   5.795018   0.000000
    20  C    7.026898   2.532775   2.939031   7.444169   0.000000
    21  C    6.390547   4.706151   4.556287   7.597325   2.384811
    22  H    4.442961   5.432331   4.870191   6.057549   3.825744
    23  C    7.297570   3.908432   4.113821   8.131971   1.376919
    24  H    7.912066   2.208500   3.052181   8.077707   1.090884
    25  H    6.897093   5.779532   5.603410   8.360873   3.381819
    26  H    8.363846   4.569349   4.939735   9.217534   2.135176
    27  C    6.095279   4.593433   5.401330   5.471087   5.254151
    28  C    5.975551   4.363216   5.148519   5.932733   4.315065
    29  P    5.109896   5.740212   6.114693   4.341048   6.392883
    30  P    7.687478   4.402007   5.659928   6.750595   5.559348
    31  C    7.097914   3.955197   5.104330   7.065160   3.752665
    32  C    4.964410   5.172394   5.533532   5.409084   4.713564
    33  C    4.212491   5.877005   6.024051   4.414260   5.817941
    34  C    7.993668   3.851055   5.314814   7.531911   4.392238
    35  C    7.863336   4.344431   5.503896   8.159792   3.377257
    36  C    5.019389   5.860486   6.047803   6.061954   4.800990
    37  P    3.515265   7.211467   7.042315   4.491276   6.812719
    38  P    9.553140   4.336023   6.020575   9.194463   4.617133
    39  C    7.923474   5.188436   6.071996   8.628012   3.560899
    40  C    9.156899   4.517325   5.962231   9.264038   3.810683
    41  C    4.295320   6.932703   6.835782   5.727144   5.926167
    42  C    6.095781   6.173304   6.446345   7.342135   4.568651
    43  C    7.230002   5.932478   6.462009   8.310101   4.096143
    44  C    9.246645   5.918247   6.888795  10.003994   4.098508
    45  P   10.321851   5.772708   7.071741  10.729702   4.459847
    46  P    5.230990   8.123848   7.933368   7.106550   6.663617
    47  C    6.280729   7.399678   7.453866   7.931908   5.602300
    48  C    8.188585   7.038720   7.485885   9.519048   4.898744
    49  P    9.685428   7.318994   8.006044  10.837817   5.143981
    50  P    7.853749   8.227532   8.369106   9.567710   6.083922
                   21         22         23         24         25
    21  C    0.000000
    22  H    2.140541   0.000000
    23  C    1.397651   3.388302   0.000000
    24  H    3.395006   4.914838   2.166509   0.000000
    25  H    1.090937   2.460907   2.168301   4.315519   0.000000
    26  H    2.180872   4.306802   1.089758   2.496832   2.532896
    27  C    6.037563   5.702530   5.994797   5.580174   6.875226
    28  C    4.792222   4.623175   4.822536   4.791235   5.556484
    29  P    6.804224   5.912640   7.052725   6.880411   7.576278
    30  P    6.899485   7.021138   6.491475   5.529462   7.800855
    31  C    4.593870   5.035818   4.275042   4.013176   5.364233
    32  C    4.499319   3.771712   4.947759   5.444093   5.115240
    33  C    5.625424   4.468662   6.166881   6.540203   6.244067
    34  C    5.749566   6.308626   5.180438   4.311641   6.592273
    35  C    4.005455   4.961803   3.537446   3.615987   4.619328
    36  C    3.901048   3.023849   4.650661   5.683724   4.265938
    37  P    6.048536   4.412550   6.910808   7.686774   6.446349
    38  P    6.182914   7.257069   5.294738   4.206059   6.937245
    39  C    3.381660   4.464201   3.176961   4.024872   3.712474
    40  C    4.910139   6.197763   4.081970   3.633525   5.508795
    41  C    4.721611   3.241434   5.712032   6.882875   4.929916
    42  C    3.259311   2.976016   4.042556   5.457966   3.348340
    43  C    3.027649   3.637765   3.432290   4.837221   3.082443
    44  C    3.957148   5.459288   3.493571   4.342194   4.064862
    45  P    5.126320   6.771380   4.251108   4.270042   5.428508
    46  P    4.905805   3.489618   6.098280   7.682515   4.723599
    47  C    3.781435   3.169441   4.841016   6.561921   3.480108
    48  C    3.419214   4.250000   3.896100   5.612074   3.004756
    49  P    4.174335   5.582603   4.124351   5.574650   3.796219
    50  P    4.098254   4.193723   5.022638   6.955951   3.413862
                   26         27         28         29         30
    26  H    0.000000
    27  C    6.792591   0.000000
    28  C    5.590341   1.442162   0.000000
    29  P    7.963350   1.730186   2.648265   0.000000
    30  P    7.123220   1.816562   2.697784   3.286803   0.000000
    31  C    4.849929   2.340886   1.367150   3.891422   2.666541
    32  C    5.805557   2.399169   1.449515   2.672868   4.027345
    33  C    7.098172   2.536332   2.399212   1.795602   4.352729
    34  C    5.659348   2.495175   2.350739   4.225253   1.732645
    35  C    3.854271   3.772304   2.600128   5.237310   3.970983
    36  C    5.451010   3.752789   2.604661   3.934472   5.291137
    37  P    7.851294   4.279504   3.979390   3.279368   6.095553
    38  P    5.433553   4.300234   3.949076   6.029373   3.274937
    39  C    3.361424   4.743314   3.379543   5.974122   5.240461
    40  C    4.095227   4.643739   3.754783   6.275278   4.265236
    41  C    6.551567   4.646075   3.779030   4.287581   6.355091
    42  C    4.638484   4.772019   3.412327   5.263122   6.046453
    43  C    3.768122   5.111579   3.673251   5.981617   6.027034
    44  C    3.201180   6.054626   4.755106   7.379133   6.288292
    45  P    3.816609   6.341214   5.285384   7.896258   6.065875
    46  P    6.784397   6.277475   5.246351   6.016588   7.908289
    47  C    5.350969   6.068841   4.776524   6.309058   7.444848
    48  C    3.918262   6.557341   5.121084   7.387584   7.420460
    49  P    3.699588   7.392925   5.996896   8.497240   7.886091
    50  P    5.191106   7.418530   6.032260   7.883643   8.579348
                   31         32         33         34         35
    31  C    0.000000
    32  C    2.602689   0.000000
    33  C    3.749896   1.442059   0.000000
    34  C    1.450324   3.785509   4.650872   0.000000
    35  C    1.447328   3.416373   4.777394   2.400526   0.000000
    36  C    3.383513   1.372498   2.347263   4.760035   3.678109
    37  P    5.251474   2.665948   1.744506   6.308659   6.036069
    38  P    2.690795   5.287951   6.335008   1.807651   2.656688
    39  C    2.599235   3.681110   5.121230   3.748439   1.365981
    40  C    2.404540   4.785687   6.080337   2.535500   1.449689
    41  C    4.751804   2.345772   2.495478   6.066351   5.121304
    42  C    3.675622   2.602630   3.775335   5.124014   3.378089
    43  C    3.409182   3.382709   4.748121   4.774303   2.595238
    44  C    3.781760   5.131747   6.571025   4.644295   2.350903
    45  P    4.023690   6.056933   7.451647   4.340254   2.700194
    46  P    5.984677   3.901857   4.229667   7.391503   5.992200
    47  C    5.120622   3.752181   4.642127   6.568225   4.748465
    48  C    4.777448   4.755852   6.057475   6.073662   3.749804
    49  P    5.276015   5.992620   7.387385   6.318695   3.940886
    50  P    6.042118   5.252165   6.296027   7.440903   5.273648
                   36         37         38         39         40
    36  C    0.000000
    37  P    2.687958   0.000000
    38  P    6.006564   7.915834   0.000000
    39  C    3.414957   6.044528   3.890626   0.000000
    40  C    5.127312   7.435995   1.725137   2.342790   0.000000
    41  C    1.443458   1.800041   7.411996   4.777774   6.570421
    42  C    1.445770   4.009971   5.985030   2.599473   4.750584
    43  C    2.600377   5.274227   5.236156   1.443852   3.772094
    44  C    4.784183   7.448060   4.212476   1.451606   2.491510
    45  P    6.042592   8.594971   3.262677   2.669844   1.808326
    46  P    2.654629   3.273502   8.513886   5.268598   7.400484
    47  C    2.397372   4.329280   7.384626   3.775572   6.057240
    48  C    3.778675   6.336630   6.267049   2.400184   4.640505
    49  P    5.249223   7.897660   6.004594   2.685033   4.286567
    50  P    3.976798   6.068963   7.887180   4.010673   6.334058
                   41         42         43         44         45
    41  C    0.000000
    42  C    2.398252   0.000000
    43  C    3.750036   1.368170   0.000000
    44  C    6.079858   3.753397   2.400588   0.000000
    45  P    7.434773   5.250239   3.973545   1.734949   0.000000
    46  P    1.738651   2.675565   3.931938   6.316875   7.895547
    47  C    2.533174   1.445929   2.346081   4.644424   6.295790
    48  C    4.644681   2.347370   1.449944   2.532883   4.266854
    49  P    6.280423   3.901683   2.660066   1.796603   3.266355
    50  P    4.275316   2.668954   2.690462   4.329800   6.063340
                   46         47         48         49         50
    46  P    0.000000
    47  C    1.788169   0.000000
    48  C    4.279923   2.492828   0.000000
    49  P    6.011604   4.225087   1.732468   0.000000
    50  P    3.266894   1.743034   1.797134   3.265496   0.000000
 Symmetry turned off by external request.
 Stoichiometry    C28H12N2P8(2+)
 Framework group  C1[X(C28H12N2P8)]
 Deg. of freedom   144
 Full point group                 C1      NOp   1
 Rotational constants (GHZ):      0.1098615      0.0892808      0.0667079
 Standard basis: def2SVP (5D, 7F)
   624 basis functions,  1130 primitive gaussians,   662 cartesian basis functions
   156 alpha electrons      156 beta electrons
       nuclear repulsion energy      5964.5209696616 Hartrees.
 NAtoms=   50 NActive=   50 NUniq=   50 SFac= 1.00D+00 NAtFMM=   60 NAOKFM=F Big=F
 Integral buffers will be    131072 words long.
 Raffenetti 2 integral format.
 Two-electron integral symmetry is turned off.
 Nuclear repulsion after empirical dispersion term =     5964.4474733681 Hartrees.
 One-electron integrals computed using PRISM.
   1 Symmetry operations used in ECPInt.
 ECPInt:  NShTT=   39340 NPrTT=  159940 LenC2=   35257 LenP2D=   91148.
 LDataN:  DoStor=T MaxTD1= 4 Len=   56
 NBasis=   624 RedAO= T EigKep=  8.36D-05  NBF=   624
 NBsUse=   624 1.00D-06 EigRej= -1.00D+00 NBFU=   624
 ExpMin= 1.05D-01 ExpMax= 8.00D+03 ExpMxC= 1.20D+03 IAcc=3 IRadAn=         5 AccDes= 0.00D+00
 Harris functional with IExCor= 4639 and IRadAn=       5 diagonalized for initial guess.
 HarFok:  IExCor= 4639 AccDes= 0.00D+00 IRadAn=         5 IDoV= 1 UseB2=F ITyADJ=14
 ICtDFT=  3500011 ScaDFX=  1.000000  1.000000  1.000000  1.000000
 FoFCou: FMM=F IPFlag=           0 FMFlag=      100000 FMFlg1=           0
         NFxFlg=           0 DoJE=T BraDBF=F KetDBF=T FulRan=T
         wScrn=  0.000000 ICntrl=     500 IOpCl=  0 I1Cent=   200000004 NGrid=           0
         NMat0=    1 NMatS0=      1 NMatT0=    0 NMatD0=    1 NMtDS0=    0 NMtDT0=    0
 Symmetry not used in FoFCou.
 Requested convergence on RMS density matrix=1.00D-08 within 128 cycles.
 Requested convergence on MAX density matrix=1.00D-06.
 Requested convergence on             energy=1.00D-06.
 No special actions if energy rises.
 Integral accuracy reduced to 1.0D-05 until final iterations.
 Initial convergence to 1.0D-05 achieved.  Increase integral accuracy.
 SCF Done:  E(RwB97XD) =  -3911.71999845     A.U. after   27 cycles
            NFock= 27  Conv=0.87D-08     -V/T= 2.0050
 DoSCS=F DFT=T ScalE2(SS,OS)=  1.000000  1.000000
 Range of M.O.s used for correlation:     1   624
 NBasis=   624 NAE=   156 NBE=   156 NFC=     0 NFV=     0
 NROrb=    624 NOA=   156 NOB=   156 NVA=   468 NVB=   468

 **** Warning!!: The largest alpha MO coefficient is  0.22987504D+02

   1 Symmetry operations used in ECPInt.
 ECPInt:  NShTT=   39340 NPrTT=  159940 LenC2=   35257 LenP2D=   91148.
 LDataN:  DoStor=T MaxTD1= 5 Len=  102
 Number of processors reduced to  10 by ecpmxn.
 Symmetrizing basis deriv contribution to polar:
 IMax=3 JMax=2 DiffMx= 0.00D+00
 G2DrvN: will do    51 centers at a time, making    1 passes.
 Calling FoFCou, ICntrl=  3107 FMM=F I1Cent=   0 AccDes= 0.00D+00.
 End of G2Drv F.D. properties file   721 does not exist.
 End of G2Drv F.D. properties file   722 does not exist.
 End of G2Drv F.D. properties file   788 does not exist.
          IDoAtm=11111111111111111111111111111111111111111111111111
          Differentiating once with respect to electric field.
                with respect to dipole field.
          Differentiating once with respect to nuclear coordinates.
          There are   153 degrees of freedom in the 1st order CPHF.  IDoFFX=6 NUNeed=     3.
    150 vectors produced by pass  0 Test12= 7.30D-14 1.00D-09 XBig12= 8.47D+02 1.20D+01.
 AX will form   150 AO Fock derivatives at one time.
    150 vectors produced by pass  1 Test12= 7.30D-14 1.00D-09 XBig12= 9.72D+01 1.59D+00.
    150 vectors produced by pass  2 Test12= 7.30D-14 1.00D-09 XBig12= 5.84D+00 3.63D-01.
    150 vectors produced by pass  3 Test12= 7.30D-14 1.00D-09 XBig12= 1.26D-01 5.03D-02.
    150 vectors produced by pass  4 Test12= 7.30D-14 1.00D-09 XBig12= 1.59D-03 3.52D-03.
    150 vectors produced by pass  5 Test12= 7.30D-14 1.00D-09 XBig12= 1.57D-05 3.24D-04.
    150 vectors produced by pass  6 Test12= 7.30D-14 1.00D-09 XBig12= 1.33D-07 3.08D-05.
    117 vectors produced by pass  7 Test12= 7.30D-14 1.00D-09 XBig12= 1.01D-09 2.66D-06.
      8 vectors produced by pass  8 Test12= 7.30D-14 1.00D-09 XBig12= 7.38D-12 2.34D-07.
      3 vectors produced by pass  9 Test12= 7.30D-14 1.00D-09 XBig12= 5.35D-14 1.89D-08.
      3 vectors produced by pass 10 Test12= 7.30D-14 1.00D-09 XBig12= 6.95D-16 1.90D-09.
      3 vectors produced by pass 11 Test12= 7.30D-14 1.00D-09 XBig12= 7.63D-16 4.99D-09.
      2 vectors produced by pass 12 Test12= 7.30D-14 1.00D-09 XBig12= 4.01D-16 3.11D-09.
 InvSVY:  IOpt=1 It=  1 EMax= 4.62D-14
 Solved reduced A of dimension  1186 with   153 vectors.
 Isotropic polarizability for W=    0.000000      568.58 Bohr**3.
 End of Minotr F.D. properties file   721 does not exist.
 End of Minotr F.D. properties file   722 does not exist.
 End of Minotr F.D. properties file   788 does not exist.

 **********************************************************************

            Population analysis using the SCF density.

 **********************************************************************

 Alpha  occ. eigenvalues --  -77.45676 -77.45588 -77.45550 -77.45453 -77.43923
 Alpha  occ. eigenvalues --  -77.43762 -77.43364 -77.43337 -14.81345 -14.81122
 Alpha  occ. eigenvalues --  -10.65048 -10.64617 -10.62851 -10.62843 -10.62014
 Alpha  occ. eigenvalues --  -10.61504 -10.58996 -10.58913 -10.58803 -10.58686
 Alpha  occ. eigenvalues --  -10.57648 -10.57479 -10.53723 -10.53556 -10.53513
 Alpha  occ. eigenvalues --  -10.53453 -10.53397 -10.53279 -10.53254 -10.53089
 Alpha  occ. eigenvalues --  -10.52230 -10.52185 -10.51998 -10.51948 -10.51935
 Alpha  occ. eigenvalues --  -10.51873 -10.51822 -10.51816  -6.91320  -6.91239
 Alpha  occ. eigenvalues --   -6.91202  -6.91130  -6.89618  -6.89446  -6.89094
 Alpha  occ. eigenvalues --   -6.89024  -5.06681  -5.06572  -5.06561  -5.06471
 Alpha  occ. eigenvalues --   -5.06311  -5.06246  -5.06191  -5.06130  -5.05919
 Alpha  occ. eigenvalues --   -5.05861  -5.05797  -5.05732  -5.04850  -5.04667
 Alpha  occ. eigenvalues --   -5.04634  -5.04521  -5.04292  -5.04280  -5.04195
 Alpha  occ. eigenvalues --   -5.04159  -5.04133  -5.04107  -5.03769  -5.03729
 Alpha  occ. eigenvalues --   -1.40155  -1.36875  -1.21860  -1.21219  -1.19080
 Alpha  occ. eigenvalues --   -1.18875  -1.18463  -1.18336  -1.13260  -1.12852
 Alpha  occ. eigenvalues --   -1.12627  -1.12264  -1.05047  -1.04942  -1.04798
 Alpha  occ. eigenvalues --   -1.04546  -1.04233  -1.02342  -1.01042  -1.00924
 Alpha  occ. eigenvalues --   -1.00057  -0.96914  -0.95269  -0.94993  -0.94689
 Alpha  occ. eigenvalues --   -0.93903  -0.93164  -0.88748  -0.88581  -0.87865
 Alpha  occ. eigenvalues --   -0.87792  -0.86306  -0.85759  -0.84739  -0.84695
 Alpha  occ. eigenvalues --   -0.83916  -0.83160  -0.82739  -0.81720  -0.81354
 Alpha  occ. eigenvalues --   -0.80591  -0.80055  -0.79729  -0.79649  -0.78486
 Alpha  occ. eigenvalues --   -0.77923  -0.76879  -0.76649  -0.76193  -0.74185
 Alpha  occ. eigenvalues --   -0.73427  -0.73089  -0.73016  -0.71782  -0.71434
 Alpha  occ. eigenvalues --   -0.71073  -0.70158  -0.69854  -0.68915  -0.67372
 Alpha  occ. eigenvalues --   -0.66114  -0.66032  -0.65744  -0.65681  -0.65576
 Alpha  occ. eigenvalues --   -0.64878  -0.63856  -0.62825  -0.61998  -0.60915
 Alpha  occ. eigenvalues --   -0.59315  -0.58797  -0.58704  -0.58074  -0.57355
 Alpha  occ. eigenvalues --   -0.57074  -0.56406  -0.56221  -0.56063  -0.55936
 Alpha  occ. eigenvalues --   -0.54461  -0.54385  -0.53007  -0.52749  -0.48451
 Alpha  occ. eigenvalues --   -0.44418
 Alpha virt. eigenvalues --   -0.31363  -0.29662  -0.29027  -0.26826  -0.26593
 Alpha virt. eigenvalues --   -0.23940  -0.23500  -0.18261  -0.13854  -0.13454
 Alpha virt. eigenvalues --   -0.12925  -0.12881  -0.12391  -0.11572  -0.10168
 Alpha virt. eigenvalues --   -0.09954  -0.08939  -0.08883  -0.08700  -0.08329
 Alpha virt. eigenvalues --   -0.08128  -0.07764  -0.07732  -0.07321  -0.06480
 Alpha virt. eigenvalues --   -0.06352  -0.05793  -0.05611  -0.05175  -0.05163
 Alpha virt. eigenvalues --   -0.04544  -0.04173  -0.03980  -0.03457  -0.03012
 Alpha virt. eigenvalues --   -0.02764  -0.02460  -0.01276  -0.00475  -0.00020
 Alpha virt. eigenvalues --    0.00286   0.00810   0.02577   0.02959   0.03796
 Alpha virt. eigenvalues --    0.04179   0.04569   0.04868   0.05272   0.05611
 Alpha virt. eigenvalues --    0.05899   0.06378   0.06818   0.07158   0.07621
 Alpha virt. eigenvalues --    0.08327   0.08984   0.09827   0.10590   0.10780
 Alpha virt. eigenvalues --    0.11892   0.12071   0.12246   0.12614   0.13067
 Alpha virt. eigenvalues --    0.13365   0.13645   0.14339   0.14696   0.15555
 Alpha virt. eigenvalues --    0.15836   0.16381   0.17127   0.17705   0.18193
 Alpha virt. eigenvalues --    0.18453   0.19490   0.20032   0.20627   0.21874
 Alpha virt. eigenvalues --    0.22140   0.23407   0.23682   0.24178   0.24901
 Alpha virt. eigenvalues --    0.25113   0.25396   0.25662   0.26063   0.26286
 Alpha virt. eigenvalues --    0.27399   0.27728   0.28174   0.28521   0.28604
 Alpha virt. eigenvalues --    0.29252   0.29457   0.29979   0.30649   0.31126
 Alpha virt. eigenvalues --    0.31659   0.32408   0.32749   0.32917   0.34247
 Alpha virt. eigenvalues --    0.34672   0.35125   0.35263   0.35416   0.35528
 Alpha virt. eigenvalues --    0.35803   0.36067   0.36543   0.37032   0.37224
 Alpha virt. eigenvalues --    0.37398   0.37945   0.38047   0.38139   0.38768
 Alpha virt. eigenvalues --    0.38959   0.39157   0.39299   0.39704   0.39872
 Alpha virt. eigenvalues --    0.40021   0.40101   0.40480   0.40896   0.41166
 Alpha virt. eigenvalues --    0.41349   0.41809   0.41913   0.42333   0.42591
 Alpha virt. eigenvalues --    0.43239   0.43595   0.43931   0.44552   0.44877
 Alpha virt. eigenvalues --    0.45013   0.45841   0.46273   0.46648   0.47227
 Alpha virt. eigenvalues --    0.47341   0.47493   0.48124   0.48320   0.48869
 Alpha virt. eigenvalues --    0.49224   0.49554   0.49761   0.50237   0.50434
 Alpha virt. eigenvalues --    0.50616   0.51205   0.51313   0.51642   0.51656
 Alpha virt. eigenvalues --    0.52104   0.52478   0.52902   0.53243   0.53527
 Alpha virt. eigenvalues --    0.54072   0.54423   0.55063   0.55256   0.55647
 Alpha virt. eigenvalues --    0.56073   0.56263   0.56676   0.57131   0.57402
 Alpha virt. eigenvalues --    0.57706   0.57996   0.58320   0.58906   0.59571
 Alpha virt. eigenvalues --    0.59882   0.60227   0.60557   0.60792   0.61614
 Alpha virt. eigenvalues --    0.61755   0.61958   0.62347   0.63412   0.63508
 Alpha virt. eigenvalues --    0.64100   0.64693   0.65276   0.65533   0.65799
 Alpha virt. eigenvalues --    0.66607   0.66933   0.67324   0.68034   0.68385
 Alpha virt. eigenvalues --    0.68729   0.69613   0.70392   0.70640   0.71612
 Alpha virt. eigenvalues --    0.72149   0.72317   0.73097   0.73195   0.73738
 Alpha virt. eigenvalues --    0.73913   0.74728   0.75149   0.76091   0.76747
 Alpha virt. eigenvalues --    0.77772   0.78040   0.78666   0.79204   0.79386
 Alpha virt. eigenvalues --    0.79791   0.80430   0.80653   0.81006   0.81340
 Alpha virt. eigenvalues --    0.81878   0.82479   0.83425   0.84026   0.84703
 Alpha virt. eigenvalues --    0.85324   0.85831   0.86308   0.87362   0.87663
 Alpha virt. eigenvalues --    0.88252   0.88441   0.89335   0.90533   0.91574
 Alpha virt. eigenvalues --    0.91950   0.92389   0.93257   0.93447   0.93793
 Alpha virt. eigenvalues --    0.94655   0.95092   0.96039   0.96310   0.96376
 Alpha virt. eigenvalues --    0.97241   0.97494   0.98350   0.99103   0.99700
 Alpha virt. eigenvalues --    1.00946   1.01533   1.02723   1.03151   1.04340
 Alpha virt. eigenvalues --    1.05190   1.05659   1.06894   1.07092   1.07654
 Alpha virt. eigenvalues --    1.08421   1.08849   1.10162   1.10907   1.11950
 Alpha virt. eigenvalues --    1.12131   1.14226   1.14736   1.16033   1.16466
 Alpha virt. eigenvalues --    1.17099   1.18119   1.18558   1.19615   1.20825
 Alpha virt. eigenvalues --    1.21101   1.21819   1.22065   1.22523   1.22672
 Alpha virt. eigenvalues --    1.22952   1.24040   1.24367   1.24515   1.25031
 Alpha virt. eigenvalues --    1.25509   1.26683   1.27813   1.28032   1.29572
 Alpha virt. eigenvalues --    1.30900   1.34226   1.35760   1.37957   1.40286
 Alpha virt. eigenvalues --    1.45952   1.47227   1.47900   1.49789   1.50483
 Alpha virt. eigenvalues --    1.52766   1.53344   1.54068   1.55212   1.56045
 Alpha virt. eigenvalues --    1.56841   1.57529   1.57995   1.58928   1.59341
 Alpha virt. eigenvalues --    1.59907   1.60701   1.61630   1.61869   1.62807
 Alpha virt. eigenvalues --    1.63167   1.64297   1.64526   1.64779   1.65060
 Alpha virt. eigenvalues --    1.65561   1.66231   1.66266   1.66496   1.67041
 Alpha virt. eigenvalues --    1.67650   1.67873   1.68919   1.70169   1.70887
 Alpha virt. eigenvalues --    1.71624   1.72002   1.72864   1.73705   1.74065
 Alpha virt. eigenvalues --    1.75092   1.75556   1.76425   1.76754   1.77689
 Alpha virt. eigenvalues --    1.78282   1.78642   1.79122   1.79713   1.79834
 Alpha virt. eigenvalues --    1.80132   1.80646   1.81525   1.82426   1.83234
 Alpha virt. eigenvalues --    1.84050   1.84288   1.85710   1.86049   1.86829
 Alpha virt. eigenvalues --    1.87588   1.88311   1.88392   1.89438   1.92262
 Alpha virt. eigenvalues --    1.93030   1.93674   1.95204   1.95209   1.95768
 Alpha virt. eigenvalues --    1.96010   1.97645   1.98387   1.98538   1.98876
 Alpha virt. eigenvalues --    1.99711   1.99976   2.00518   2.01934   2.02910
 Alpha virt. eigenvalues --    2.03983   2.04548   2.05388   2.05937   2.06737
 Alpha virt. eigenvalues --    2.08152   2.09340   2.10442   2.10984   2.11927
 Alpha virt. eigenvalues --    2.12564   2.14492   2.15230   2.15603   2.15994
 Alpha virt. eigenvalues --    2.16589   2.16842   2.18139   2.19229   2.20665
 Alpha virt. eigenvalues --    2.21516   2.21805   2.22226   2.23177   2.23770
 Alpha virt. eigenvalues --    2.24235   2.24722   2.25078   2.26017   2.27059
 Alpha virt. eigenvalues --    2.27964   2.28169   2.28565   2.30347   2.31881
 Alpha virt. eigenvalues --    2.33169   2.34071   2.37099   2.37453   2.37576
 Alpha virt. eigenvalues --    2.42057   2.43667   2.45036   2.45868   2.46257
 Alpha virt. eigenvalues --    2.47419   2.49549   2.50122   2.50396   2.50917
 Alpha virt. eigenvalues --    2.51246   2.52676   2.53426   2.55137   2.55720
 Alpha virt. eigenvalues --    2.57099   2.57716   2.58217   2.59391   2.62590
 Alpha virt. eigenvalues --    2.63547   2.63901   2.64801   2.65500   2.66663
 Alpha virt. eigenvalues --    2.69264   2.72119   2.75036   2.76388   2.79371
 Alpha virt. eigenvalues --    2.81400   2.86126   2.87408   2.87867   2.88818
 Alpha virt. eigenvalues --    2.91369   2.91457   2.94943   2.97354   2.98935
 Alpha virt. eigenvalues --    3.05717   3.07068   3.08298   3.16537   3.26406
 Alpha virt. eigenvalues --    3.42172   3.44069   3.53241
          Condensed to atoms (all electrons):
               1          2          3          4          5          6
     1  C    5.154866   0.392205   0.405111  -0.043139  -0.035692   0.159383
     2  N    0.392205   6.493983  -0.048039   0.266377   0.376825  -0.071097
     3  C    0.405111  -0.048039   5.006477   0.004925  -0.080708  -0.047925
     4  C   -0.043139   0.266377   0.004925   4.600977  -0.032176  -0.013861
     5  C   -0.035692   0.376825  -0.080708  -0.032176   4.812930   0.005775
     6  C    0.159383  -0.071097  -0.047925  -0.013861   0.005775   5.171418
     7  C    0.002116  -0.036056   0.375070   0.000254   0.011032   0.017195
     8  H   -0.018074   0.004142   0.426630  -0.000075  -0.000049  -0.032333
     9  C   -0.014960  -0.030004  -0.000104   0.424539   0.005893  -0.043760
    10  H    0.002581  -0.015729  -0.000143   0.390035  -0.005138   0.000653
    11  H   -0.002450  -0.025682  -0.000350   0.380414  -0.002597   0.002167
    12  C   -0.063215  -0.027946   0.040046   0.004555   0.439228   0.000645
    13  H    0.003215  -0.035825   0.000438  -0.003946   0.415899  -0.000249
    14  N   -0.071185  -0.013972   0.005636  -0.032278  -0.000387   0.391177
    15  C   -0.041343   0.006005  -0.013999  -0.000350   0.000186   0.424240
    16  H    0.011576   0.000030  -0.044281   0.000026   0.008724  -0.000320
    17  H    0.000689   0.003575   0.000029  -0.008502  -0.000122   0.002921
    18  H    0.002809  -0.003833  -0.000129  -0.020490   0.000111  -0.002560
    19  H   -0.000116   0.003453   0.008762  -0.000086  -0.038866   0.000018
    20  C    0.005617  -0.000371   0.000141   0.004047   0.000033  -0.036969
    21  C    0.016557  -0.000059   0.001539   0.000009  -0.000003  -0.005166
    22  H   -0.031943  -0.000094   0.004594  -0.000023   0.000027  -0.016688
    23  C    0.001252   0.000071  -0.000173  -0.000614  -0.000001  -0.060044
    24  H   -0.000246  -0.000018   0.000004   0.000470   0.000000   0.003166
    25  H   -0.000332   0.000000   0.000041   0.000000   0.000000   0.012567
    26  H    0.000018   0.000000  -0.000001   0.000006   0.000000  -0.000176
    27  C    0.001337  -0.001767  -0.000168  -0.011271   0.001618   0.000100
    28  C   -0.005665   0.002603   0.000066   0.004567  -0.001185  -0.005515
    29  P    0.000710  -0.001867  -0.000898  -0.002338   0.009896  -0.000217
    30  P    0.000140  -0.000195   0.000000  -0.007008   0.000261   0.000088
    31  C   -0.001679   0.000061   0.000011   0.002127  -0.000118  -0.000729
    32  C    0.004821  -0.004260  -0.004568  -0.000737   0.001641   0.004281
    33  C   -0.003984   0.001824   0.000104   0.000237  -0.003206  -0.002138
    34  C    0.000008   0.000089   0.000003  -0.001857  -0.000010   0.000003
    35  C    0.000050  -0.000026  -0.000009   0.000137   0.000002   0.003658
    36  C    0.007481  -0.000738  -0.003157  -0.000357   0.000038   0.008384
    37  P   -0.007076   0.000653   0.004789   0.000087  -0.002156  -0.000826
    38  P    0.000001   0.000001   0.000000  -0.000109   0.000000  -0.000031
    39  C   -0.000030  -0.000002  -0.000004  -0.000016   0.000000   0.001508
    40  C    0.000001   0.000000   0.000000  -0.000011   0.000000  -0.000088
    41  C    0.000160   0.000098  -0.000524  -0.000002   0.000068  -0.001501
    42  C   -0.000761   0.000024   0.000351  -0.000007  -0.000005  -0.008020
    43  C   -0.000045   0.000002   0.000025  -0.000003   0.000000  -0.000931
    44  C    0.000000   0.000000   0.000000   0.000000   0.000000  -0.000027
    45  P    0.000000   0.000000   0.000000   0.000000   0.000000  -0.000015
    46  P    0.000034   0.000000  -0.000422   0.000000   0.000000   0.000052
    47  C   -0.000018   0.000000  -0.000047   0.000000   0.000000   0.000709
    48  C    0.000003   0.000000   0.000000   0.000000   0.000000   0.000007
    49  P    0.000000   0.000000   0.000000   0.000000   0.000000  -0.000007
    50  P    0.000002   0.000000   0.000000   0.000000   0.000000   0.000089
               7          8          9         10         11         12
     1  C    0.002116  -0.018074  -0.014960   0.002581  -0.002450  -0.063215
     2  N   -0.036056   0.004142  -0.030004  -0.015729  -0.025682  -0.027946
     3  C    0.375070   0.426630  -0.000104  -0.000143  -0.000350   0.040046
     4  C    0.000254  -0.000075   0.424539   0.390035   0.380414   0.004555
     5  C    0.011032  -0.000049   0.005893  -0.005138  -0.002597   0.439228
     6  C    0.017195  -0.032333  -0.043760   0.000653   0.002167   0.000645
     7  C    4.791485  -0.040020   0.000026  -0.000113   0.000104   0.375163
     8  H   -0.040020   0.574865  -0.000006   0.000004  -0.000004   0.008721
     9  C    0.000026  -0.000006   4.572534  -0.012639  -0.015502  -0.000727
    10  H   -0.000113   0.000004  -0.012639   0.531879  -0.010002   0.001953
    11  H    0.000104  -0.000004  -0.015502  -0.010002   0.548492  -0.000198
    12  C    0.375163   0.008721  -0.000727   0.001953  -0.000198   4.876652
    13  H    0.006241   0.000022   0.000776   0.001597  -0.000479  -0.023166
    14  N   -0.000050  -0.000095   0.268522   0.003463  -0.003689   0.000054
    15  C    0.001248   0.005459   0.005068   0.000024  -0.000162  -0.000149
    16  H    0.436394  -0.008357   0.000000   0.000000  -0.000001  -0.048955
    17  H   -0.000001   0.000000   0.386783  -0.002084  -0.006521   0.000012
    18  H    0.000015   0.000003   0.406545  -0.005645   0.005356  -0.000071
    19  H   -0.038929  -0.000129   0.000002   0.000000   0.000012   0.436721
    20  C   -0.000002   0.000026  -0.030585  -0.000144   0.000610  -0.000002
    21  C   -0.000079   0.001494   0.000183   0.000000   0.000014   0.000004
    22  H    0.001362  -0.003475  -0.000070   0.000000   0.000004  -0.000072
    23  C    0.000004  -0.000080   0.004498   0.000013  -0.000135   0.000000
    24  H    0.000000   0.000000  -0.005093  -0.000021  -0.000025   0.000000
    25  H   -0.000001   0.000008   0.000033   0.000000   0.000000   0.000000
    26  H    0.000000   0.000000  -0.000098   0.000000   0.000000   0.000000
    27  C    0.000116   0.000003   0.000886  -0.000117  -0.002884  -0.000472
    28  C    0.000246   0.000024  -0.000623   0.000384  -0.005515  -0.000123
    29  P   -0.000209  -0.000015   0.000118  -0.000078   0.002277  -0.003050
    30  P   -0.000002   0.000000   0.000379  -0.000488   0.025100   0.000003
    31  C    0.000004  -0.000001  -0.001633   0.000127  -0.002366   0.000010
    32  C   -0.001373  -0.000282   0.000221  -0.000075  -0.001490   0.000451
    33  C   -0.002389  -0.000451  -0.000052   0.000024  -0.001461   0.001887
    34  C    0.000000   0.000000   0.000202  -0.000002   0.001263   0.000001
[...]
 4,0.00358904,-0.00073649,0.00023022,-0.00536907,0.00929985,-0.00009698
 ,0.00184545,-0.00838482,-0.00089262,-0.01018277,0.01731496,-0.00053965
 ,-0.04499615,-0.23289843,0.00292319,0.05312387,-0.05114224,0.00037971,
 0.00948506,-0.00215816,0.00048266,-0.00332556,0.00276213,0.00008051,0.
 07119580,-0.09079811,0.00273928,0.01522120,0.44924759,0.00040497,-0.00
 004005,0.00002224,-0.00004329,-0.00009630,-0.00002745,-0.00012817,0.00
 016967,-0.00005332,-0.00002513,0.00000530,-0.00001247,-0.00000630,-0.0
 0000163,0.00002902,-0.00089897,0.00015436,-0.00018788,0.00011275,0.000
 03907,0.00002506,-0.00008584,-0.00002916,0.00005178,0.00000077,0.00005
 030,0.00000421,-0.00000286,-0.00000224,-0.00000144,0.00000831,-0.00002
 751,-0.00000688,-0.00002598,-0.00002760,-0.00003391,-0.00000234,-0.000
 00030,0.00000009,0.00008494,-0.00029302,0.00006231,0.00075052,0.000393
 07,-0.00028238,-0.00001058,0.00001181,0.00001217,0.00000923,0.00000065
 ,-0.00000854,-0.00001314,-0.00000853,0.00000811,-0.00000420,-0.0000009
 5,0.00000487,0.00009338,0.00023246,-0.00002885,-0.00046309,0.00052019,
 -0.00009286,-0.00039751,-0.00020603,0.00024424,0.00033006,-0.00038403,
 -0.00009817,0.00003732,0.00000478,-0.00000718,0.00031578,-0.00038884,0
 .00037455,-0.00000791,0.00002258,-0.00000399,-0.00053923,0.00017263,-0
 .00010940,0.00010847,0.00039962,0.00115438,0.00009950,-0.00024822,-0.0
 0059021,0.00016448,-0.00008310,0.00015229,0.00003031,-0.00004133,-0.00
 035171,0.00062087,-0.00001047,0.00322391,-0.00022712,0.00084245,-0.001
 45957,-0.00038557,0.00017404,-0.00029295,-0.00021704,-0.00026587,0.000
 32913,-0.00080647,0.00053881,0.00169848,-0.00084394,-0.00049506,0.0033
 9724,0.00026998,0.00009918,0.00017517,0.00035225,0.00026270,0.00699237
 ,-0.00065404,-0.00014376,-0.00004629,0.00255571,-0.00115095,0.00563923
 ,0.00176035,0.00324682,-0.06502445,-0.00052600,-0.00027504,0.00712598,
 -0.00016705,-0.00136433,-0.00137519,0.00029968,0.00084042,-0.00053858,
 -0.00179382,0.00269554,-0.02544378,-0.01046145,-0.00870877,0.08846118,
 0.00036994,-0.00044176,-0.00012719,-0.00000796,0.00004425,-0.00014815,
 -0.00038146,0.00022904,-0.00005096,0.00006279,0.00009101,0.00010181,-0
 .00047666,0.00026390,0.00039189,-0.00042679,-0.00017162,-0.00017578,0.
 00026607,-0.00008521,-0.00008261,0.00000032,-0.00007140,-0.00025005,0.
 00006667,0.00007863,0.00001206,-0.00000856,0.00001886,0.00005387,-0.00
 004016,0.00031965,-0.00001369,-0.00004727,-0.00053048,0.00025993,0.000
 01078,0.00001481,0.00000698,0.00025146,-0.00031119,-0.00009967,0.00033
 626,0.00085401,-0.00064527,0.00003039,0.00002931,-0.00002127,0.0000041
 6,0.00001410,0.00002246,-0.00001036,0.00001530,0.00001227,0.00002834,-
 0.00000368,-0.00002964,-0.00009124,0.00005369,0.00012048,-0.00015116,0
 .00052883,0.00046418,0.00029408,-0.00002144,-0.00005330,-0.00053622,0.
 00008379,0.00009840,-0.00012484,-0.00002429,0.00005621,-0.00030983,0.0
 0018359,-0.00047810,-0.00010281,0.00003490,0.00017837,0.00888514,-0.00
 847678,0.00030427,-0.00373767,0.00119079,-0.00054043,-0.00074692,0.012
 22137,0.00063233,-0.00685889,0.00512496,-0.00062215,0.00150233,-0.0053
 1040,0.00053129,0.00287259,-0.00111254,0.00000145,-0.00972144,-0.01116
 551,-0.00085202,0.01141133,0.00374741,0.00100695,0.00156195,0.00943711
 ,-0.00037900,0.00005079,0.00371070,-0.00073747,0.00814073,0.00413482,0
 .00017057,-0.00575839,-0.00188799,-0.00039028,-0.00480970,-0.01283809,
 0.00039418,0.01428606,0.00164902,0.00000127,-0.01647655,-0.00314406,0.
 00048063,-0.06237065,0.02699784,0.00326314,-0.16734029,-0.08457766,0.0
 0420940,0.01701046,0.03807718,-0.00087568,-0.00575363,-0.01805664,-0.0
 0073457,0.00552683,-0.00655274,-0.00006555,-0.05092846,0.00229815,0.00
 222605,0.48432829,0.00006883,0.00086842,0.00074488,0.00000479,0.000049
 25,0.00035555,0.00071486,-0.00107468,0.00030049,-0.00023609,0.00006283
 ,-0.00019541,0.00018964,-0.00042808,-0.00056384,-0.00035816,-0.0008783
 4,0.00017008,-0.00044143,0.00015743,-0.00026688,0.00004718,0.00008587,
 0.00009620,-0.00017541,-0.00044082,-0.00021261,0.00004055,-0.00004938,
 0.00001544,0.00001971,0.00010473,0.00029341,-0.00009646,0.00026265,-0.
 00009518,-0.00004262,0.00000780,0.00004222,0.00078726,0.00109650,0.000
 19694,0.00125464,0.00039040,-0.00048954,-0.00003975,-0.00003723,0.0000
 7374,0.00009522,-0.00001762,-0.00003024,0.00003946,0.00006514,-0.00004
 987,-0.00002926,0.00000062,-0.00001640,-0.00157453,-0.00098926,0.00006
 972,-0.00084068,-0.00120283,0.00195452,-0.00019141,-0.00008038,0.00044
 117,0.00083474,0.00240215,-0.00091910,0.00018421,-0.00004844,-0.000197
 64,0.00040067,-0.00013834,-0.00020764,0.00012941,-0.00003609,-0.000534
 15,-0.00637759,0.01299368,0.00069023,-0.00007735,0.00163696,0.00081062
 ,-0.00139544,-0.01159178,-0.00054059,0.01075229,-0.00474983,0.00024375
 ,-0.00032415,0.00392441,-0.00057508,0.00563993,-0.00140234,-0.00055674
 ,0.00027353,0.01707936,-0.00024878,-0.01730789,0.00014804,-0.00114789,
 -0.00157446,-0.00066312,0.00033923,0.01380092,-0.00791127,0.00035157,-
 0.01172976,-0.00903518,-0.00051112,0.01550009,0.00492809,0.00132877,-0
 .01724331,-0.04012362,0.00154754,-0.01578976,-0.01923224,-0.00098257,0
 .01699167,0.02069297,-0.00054252,-0.00724381,0.00423073,0.00135372,-0.
 07953012,-0.14119000,0.00155867,0.00897206,-0.06665907,-0.00157072,0.0
 0480610,0.01676882,0.00097602,-0.02891930,0.00010620,0.00037239,0.0566
 9690,-0.00775772,-0.00178094,-0.02169243,0.44616428,0.00027949,0.00006
 003,0.00001387,0.00011193,-0.00005313,-0.00001970,-0.00012722,0.000060
 84,-0.00000496,-0.00004240,0.00002461,-0.00000305,-0.00004595,-0.00001
 328,-0.00002842,-0.00037920,0.00056004,0.00006262,0.00009062,0.0000355
 8,0.00005300,-0.00001096,0.00001694,-0.00000638,0.00004842,0.00006030,
 0.00001689,-0.00000549,-0.00000283,-0.00000270,-0.00000127,-0.00004824
 ,-0.00002637,-0.00001710,-0.00002685,-0.00003567,-0.00000034,-0.000000
 70,0.00000052,-0.00004123,-0.00055851,0.00004168,0.00003851,0.00017355
 ,0.00047110,-0.00000623,0.00000371,0.00000146,0.00000217,-0.00000563,-
 0.00000486,-0.00002253,-0.00001574,0.00002508,-0.00000416,-0.00000128,
 0.00000444,0.00027593,-0.00005822,-0.00005884,-0.00019906,-0.00045104,
 -0.00158501,-0.00001869,-0.00001084,-0.00014182,0.00009984,-0.00037594
 ,0.00027446,0.00003695,0.00002207,-0.00003226,0.00013689,0.00062190,-0
 .00028954,-0.00004117,-0.00019702,0.00008305,-0.00025796,0.00066789,-0
 .00029641,-0.00035133,0.00015103,-0.00022522,-0.00000501,-0.00069571,0
 .00024829,0.00040117,-0.00032382,0.00006954,0.00046023,0.00030135,0.00
 074142,-0.00028929,-0.00039863,0.00037760,0.00064823,0.00026406,0.0001
 0133,-0.00068505,-0.00029908,-0.00012473,-0.00001302,0.00000195,0.0024
 2185,0.00032284,0.00022030,0.00824005,0.00032144,0.00001239,-0.0011593
 2,0.00048503,0.00001870,-0.00000324,0.00052592,-0.00002748,0.00396394,
 -0.00071214,-0.00038958,-0.00133483,0.00022170,0.00003452,-0.00152527,
 0.00159470,-0.00068652,0.00498248,0.00545054,0.00454160,-0.06508011,-0
 .00158775,-0.00119854,0.00517597,0.00011223,0.00105340,0.00147415,0.00
 024801,0.00037037,0.00433884,0.00095431,-0.00031562,0.00332277,-0.0176
 8674,-0.00348723,0.08913297,-0.00078148,0.00003538,0.00023758,0.000141
 49,0.00040743,-0.00014020,0.00034824,-0.00031099,0.00004243,0.00005975
 ,-0.00010704,0.00006396,0.00011932,-0.00017402,-0.00002864,0.00081826,
 -0.00002796,0.00007377,-0.00034726,-0.00019337,0.00010986,0.00001309,0
 .00004191,0.00007819,-0.00012729,-0.00016012,0.00000446,0.00000699,-0.
 00000980,0.00001222,-0.00003743,0.00007420,0.00004941,0.00005195,0.000
 37339,0.00000676,-0.00002923,-0.00001721,0.00001666,0.00033962,0.00041
 270,0.00001649,-0.00040988,-0.00029469,0.00005275,-0.00004332,0.000023
 13,0.00002057,0.00000322,-0.00000310,0.00004809,0.00004352,0.00000192,
 -0.00000088,-0.00004255,0.00000639,0.00001378,-0.00068162,-0.00030432,
 -0.00002349,0.00015948,-0.00067727,0.00009053,-0.00005108,-0.00002351,
 0.00005714,0.00021627,0.00076364,-0.00013379,0.00006067,0.00000799,0.0
 0006192,0.00015335,0.00018796,0.00028308,0.00034355,0.00002397,0.00015
 266,-0.00118957,0.00079157,-0.00008916,0.00102949,0.00085097,0.0003603
 4,-0.00091814,-0.00195066,-0.00022360,-0.00043901,-0.00080790,-0.00020
 311,0.00040525,0.00053083,-0.00016709,0.00226222,0.00021978,-0.0000181
 9,-0.00013229,0.00303619,-0.00009936,0.00036810,-0.00073211,-0.0001072
 8,-0.00504738,0.00068658,0.00018102,-0.00021638,-0.00156422,-0.0000417
 6,-0.00356108,-0.00211857,-0.00027792,-0.00140731,-0.00137504,-0.00023
 698,-0.01862044,-0.02532884,0.00155272,0.00064344,0.00576304,0.0006758
 0,0.00508089,0.00349034,-0.00011999,0.00122487,-0.00908941,0.00008700,
 -0.04320156,0.01018982,0.00216163,-0.08924827,-0.04964545,0.00454421,0
 .00256571,0.00394149,-0.00065282,-0.00697609,0.00136479,0.00005429,0.0
 1182302,-0.00189856,-0.00045482,-0.19662762,0.06246712,0.00977572,0.34
 858870,0.00227265,-0.00104036,-0.00097205,-0.00012920,-0.00096423,-0.0
 0012115,-0.00149699,0.00135316,-0.00054456,-0.00005096,0.00036244,0.00
 014736,-0.00123383,0.00120221,0.00069393,-0.00236262,0.00047789,-0.000
 31427,0.00110314,0.00050359,-0.00021840,-0.00002650,-0.00005667,-0.000
 09765,0.00031878,0.00036499,0.00017705,-0.00001440,-0.00000598,0.00004
 277,0.00008959,0.00010937,0.00016442,-0.00033588,-0.00173808,0.0003951
 5,-0.00001407,-0.00000686,0.00004999,0.00056047,-0.00176709,-0.0002508
 0,0.00077561,0.00065839,-0.00069544,0.00006630,0.00003755,0.00002239,-
 0.00001462,0.00000349,0.00010346,-0.00009752,-0.00004271,-0.00000099,0
 .00005803,0.00000093,0.00000970,0.00050423,0.00114381,0.00060849,-0.00
 033605,0.00188935,-0.00017869,0.00034891,0.00011141,-0.00006696,-0.000
 71829,-0.00175754,0.00006411,-0.00024385,-0.00005558,0.00023483,-0.000
 03904,-0.00011354,-0.00062559,0.00005051,0.00037555,0.00062677,0.01111
 221,-0.01281096,-0.00012392,-0.00148779,-0.00015607,-0.00153157,-0.000
 11332,0.01522066,0.00056402,-0.01117529,0.00543284,-0.00075162,-0.0011
 3250,-0.00767848,0.00135322,-0.00275079,-0.00079079,0.00207279,-0.0050
 2017,-0.01522932,-0.00058325,0.01893595,0.00381541,0.00127304,0.006828
 24,0.01293992,-0.00202771,-0.00139414,0.00186008,-0.00239960,0.0077156
 5,0.00728113,0.00085522,-0.01306914,-0.00534911,-0.00098456,-0.0274762
 0,-0.01215062,0.00169656,0.02264991,0.00526402,0.00015236,-0.01471998,
 -0.00850757,0.00021937,-0.01086082,0.01790929,0.00216453,0.02258667,0.
 01127714,-0.00120524,-0.06771938,-0.09415463,0.00547671,-0.01702810,-0
 .02962457,-0.00075660,0.01498487,-0.00115505,-0.00027389,-0.02643558,-
 0.01295053,0.00143078,0.06965776,-0.06430833,-0.00280525,-0.00375155,0
 .20491836,-0.00022115,-0.00003730,0.00001247,-0.00002793,0.00010625,0.
 00000118,0.00003692,-0.00003972,0.00002679,0.00003538,-0.00003473,0.00
 001011,0.00004941,-0.00001454,0.00001388,0.00036753,-0.00008988,0.0000
 8071,-0.00003203,-0.00005217,0.00000550,0.00001137,-0.00001087,-0.0000
 1059,0.00000264,0.00003797,-0.00002423,-0.00000646,0.00000702,-0.00000
 806,-0.00000483,0.00001489,-0.00001510,0.00002242,0.00005338,0.0000095
 9,0.00000740,0.00000291,-0.00000930,-0.00021417,0.00008554,-0.00003392
 ,-0.00020688,-0.00011001,0.00003529,0.00000280,-0.00000313,-0.00000853
 ,-0.00000319,0.00000497,-0.00000464,0.00000525,-0.00000331,-0.00000199
 ,0.00000430,-0.00000041,-0.00000230,-0.00001279,0.00016772,0.00017743,
 0.00041805,-0.00013962,-0.00024048,-0.00001653,-0.00000077,-0.00007308
 ,0.00032188,-0.00004317,-0.00013086,-0.00002074,-0.00001070,-0.0000123
 0,0.00014626,-0.00012761,-0.00004222,-0.00003693,0.00028631,-0.0004286
 7,0.00000460,-0.00020030,0.00025716,0.00009094,0.00002752,-0.00023497,
 0.00007413,0.00026418,0.00000608,-0.00001165,0.00009223,-0.00010837,-0
 .00007448,-0.00006266,-0.00024941,0.00005236,0.00016815,-0.00000536,-0
 .00024314,-0.00027537,0.00010605,0.00002204,0.00009033,-0.00063944,0.0
 0030078,0.00000223,-0.00006094,-0.00014470,-0.00014262,-0.00132786,0.0
 0021405,0.00006180,-0.00013640,0.00007091,0.00005845,0.00072584,0.0010
 4071,0.00090796,0.00817312,-0.00000058,-0.00031800,0.00451949,-0.00041
 768,-0.00011146,-0.00003229,0.00012417,0.00095795,0.00018283,0.0019077
 3,-0.00018602,0.01194385,0.00532869,0.00395636,-0.02564237,-0.00044714
 ,-0.00043783,-0.00360590,0.00036802,-0.00015487,0.00078374,-0.00079059
 ,-0.00045515,0.00236030,0.00951842,-0.00174289,-0.02339898,-0.01781163
 ,-0.00193197,0.03108335,0.00193269,0.00045148,0.00013613,0.00041727,-0
 .00075296,0.00013699,-0.00043640,-0.00019529,0.00001728,-0.00046795,0.
 00038671,-0.00006608,-0.00104788,0.00061239,-0.00028994,-0.00221378,-0
 .00020329,-0.00008938,0.00046674,0.00076895,-0.00049188,0.00000958,0.0
 0007162,0.00024171,0.00013327,-0.00009107,-0.00010637,0.00001656,-0.00
 005819,0.00001796,0.00009543,-0.00003233,0.00046591,-0.00036064,-0.001
 17185,0.00016114,-0.00006508,0.00001124,0.00007253,0.00080681,-0.00025
 493,-0.00004013,0.00166749,0.00041933,-0.00078493,-0.00002097,-0.00003
 473,0.00012692,0.00009713,-0.00001823,0.00005836,-0.00008052,-0.000029
 57,-0.00005527,0.00000416,-0.00000149,0.00001409,-0.00100653,-0.000210
 12,0.00008532,-0.00110195,0.00008977,0.00143918,-0.00023861,-0.0001554
 2,0.00071760,0.00079263,0.00097692,-0.00078930,0.00015256,-0.00002314,
 -0.00000791,0.00063973,-0.00045033,0.00009941,0.00012450,0.00009243,-0
 .00026251,-0.00631086,0.01123513,0.00028227,0.00304730,0.00073006,0.00
 014378,-0.00185780,-0.01170495,-0.00078314,0.00788249,-0.00549600,0.00
 009934,-0.00244748,0.00390557,-0.00025011,0.00100850,-0.00068856,0.001
 74919,0.00512306,0.01647592,-0.00027110,-0.01147681,-0.00079991,-0.001
 00222,-0.00306808,-0.00097081,0.00001413,0.01768398,-0.00860085,-0.001
 25233,-0.01447790,-0.00779701,0.00003904,0.00836414,0.00222591,0.00066
 380,0.00159479,-0.00521614,0.00072030,-0.00934656,-0.00697889,-0.00045
 352,0.01646508,0.02423907,-0.00087664,-0.02371305,-0.03936930,0.004227
 88,-0.00319678,-0.00188485,-0.00149712,-0.00791449,-0.01788788,-0.0002
 5603,0.00633318,0.00948889,0.00046670,-0.03461876,-0.00452169,0.000563
 23,-0.17974656,-0.06553374,0.00855618,-0.02345221,0.01251939,-0.000091
 55,-0.00673419,0.03062909,0.00019608,0.26054275,0.00241127,0.00015266,
 -0.00075802,-0.00016743,-0.00140325,0.00023331,-0.00070898,0.00083347,
 -0.00046175,-0.00023256,0.00014290,-0.00005860,-0.00034344,0.00049531,
 -0.00006783,-0.00242628,0.00108453,-0.00003825,0.00063155,0.00069203,-
 0.00027018,-0.00007362,-0.00000099,0.00004015,0.00040576,0.00053779,0.
 00014877,-0.00002932,0.00000905,0.00008521,0.00007757,-0.00000345,0.00
 033922,-0.00020637,-0.00091221,-0.00011187,-0.00001183,0.00001396,0.00
 005082,-0.00068071,-0.00161588,0.00012669,0.00073210,0.00020407,0.0002
 6798,0.00006326,-0.00000988,0.00002114,0.00001485,0.00001189,0.0000615
 6,-0.00014856,-0.00010198,0.00001454,0.00004269,0.00000590,0.00001966,
 0.00171241,0.00079453,-0.00045587,-0.00113812,0.00059391,-0.00182612,0
 .00001213,0.00011616,-0.00015796,-0.00025886,-0.00227865,0.00073060,-0
 .00005192,0.00006761,0.00007376,-0.00017598,0.00022134,0.00084195,-0.0
 0014749,-0.00009990,0.00037091,0.00618151,-0.00470253,0.00001683,-0.00
 184415,-0.00348805,-0.00074922,-0.00036975,0.00613907,0.00030878,-0.00
 508063,0.00268738,-0.00028289,0.00121137,-0.00093042,-0.00015890,-0.00
 598762,-0.00086037,0.00049567,0.00218499,-0.00909192,0.00006448,0.0096
 3853,-0.00055603,0.00062127,0.00177661,-0.00316306,0.00086984,-0.00096
 705,-0.00015876,0.00018587,0.00418095,0.00684275,0.00093443,-0.0078738
 1,-0.00330310,-0.00076485,-0.00571943,0.00644763,-0.00042739,0.0098899
 1,0.00911052,0.00028168,-0.00528393,-0.00849342,-0.00004628,-0.0163856
 1,-0.01442877,0.00015105,-0.01305943,-0.03953555,0.00365945,0.00428160
 ,0.02253637,0.00020958,-0.00395134,-0.01280895,-0.00062256,0.01998236,
 0.00301020,-0.00062825,-0.05815511,-0.05369635,0.00376680,-0.00462890,
 -0.15418134,0.00316958,0.00487319,-0.02209833,-0.00061703,0.06580363,0
 .27517213,0.00027402,-0.00005432,0.00002907,-0.00004545,-0.00003807,0.
 00001594,-0.00014439,0.00012114,-0.00004805,0.00000474,-0.00002111,0.0
 0000194,-0.00003242,0.00006698,-0.00001751,-0.00010667,0.00038587,0.00
 002833,0.00010592,0.00003792,-0.00001330,-0.00000747,-0.00002111,0.000
 01310,0.00011726,0.00014957,0.00001434,-0.00001412,0.00000921,0.000002
 89,0.00001481,0.00001772,0.00005128,-0.00002035,-0.00010248,-0.0000174
 8,0.00000597,0.00000552,-0.00000298,-0.00012209,-0.00046138,-0.0000103
 4,-0.00051387,-0.00013459,0.00002669,0.00000899,-0.00000570,-0.0000037
 0,-0.00000758,-0.00000150,0.00000205,-0.00004017,-0.00002650,0.0000000
 9,0.00001225,-0.00000185,0.00000298,0.00020966,0.00013706,-0.00024887,
 0.00092081,0.00099217,-0.00019175,0.00002483,-0.00013237,0.00006178,-0
 .00021707,-0.00039686,0.00000552,-0.00001064,0.00001256,0.00004462,-0.
 00022534,0.00011204,-0.00017799,-0.00000735,-0.00001055,0.00009860,0.0
 0036938,-0.00058272,-0.00001669,-0.00016162,-0.00013781,-0.00002540,0.
 00011724,0.00064344,-0.00009954,-0.00027037,0.00039148,0.00005447,0.00
 011073,-0.00016924,-0.00004259,-0.00038002,-0.00032349,-0.00026666,0.0
 0000402,-0.00089443,-0.00048043,0.00048354,-0.00005242,0.00017111,-0.0
 0019765,-0.00025706,0.00028549,-0.00001087,0.00108391,0.00176703,0.000
 58571,0.00057140,0.00111676,-0.00042473,0.00002594,-0.00010074,0.00043
 151,0.00076786,0.00154547,0.00037981,0.00031646,-0.00113118,-0.0010136
 8,-0.00124306,0.00158986,0.00099731,0.00097931,0.01171466,0.00032392,0
 .00034245,0.00927847,0.00034144,0.00044776,0.00375490,-0.00011702,-0.0
 0031422,0.00093513,0.00150718,-0.00014256,-0.00406154,0.00804849,0.005
 56393,-0.02879367,0.00054071,0.00313871,-0.03025165,-0.00005430,-0.001
 13728,-0.00402622,-0.01179501,-0.00965774,0.03741568\\0.00003840,0.000
 02260,-0.00001144,-0.00002367,-0.00002695,0.00001294,0.00001022,-0.000
 00561,0.00001658,-0.00006525,0.00001143,-0.00001143,-0.00000059,0.0000
 1334,0.00000414,-0.00002843,0.00000573,0.00001002,0.00000631,0.0000244
 8,0.00000611,-0.00000256,0.00000189,-0.00000966,-0.00002484,-0.0000097
 8,-0.00000922,-0.00000428,-0.00000367,-0.00000553,0.00005495,-0.000033
 93,0.00003116,-0.00000583,-0.00000875,-0.00000233,-0.00000136,0.000003
 96,0.00000026,0.00002954,0.00001069,-0.00000324,0.00000896,0.00000238,
 0.00000089,0.00000377,0.00000261,0.00000124,-0.00000172,0.00000130,-0.
 00000236,-0.00000080,0.00000082,-0.00000069,0.00000047,0.00000580,0.00
 000608,-0.00002514,-0.00000695,-0.00000080,-0.00000709,-0.00000577,0.0
 0000260,0.00001142,0.00000117,0.00000735,0.00001416,0.00000021,-0.0000
 0525,0.00000001,-0.00000170,0.00000351,0.00000100,0.00000020,-0.000001
 93,-0.00000179,-0.00000475,-0.00000247,0.00001335,-0.00001892,0.000006
 07,-0.00001031,-0.00000020,0.00000908,-0.00000705,0.00003566,0.0000039
 5,0.00000186,0.00002826,0.00001811,0.00000504,-0.00001459,-0.00001779,
 0.00002556,0.00000601,-0.00003006,-0.00002831,-0.00001146,-0.00001554,
 0.00001917,0.00002184,-0.00002233,0.00000571,-0.00001727,0.00000928,0.
 00000355,-0.00002981,0.00001642,-0.00001138,-0.00001148,-0.00001554,-0
 .00001949,-0.00000633,0.00000042,-0.00000655,-0.00000627,0.00000166,0.
 00000029,0.00001315,-0.00000343,0.00001242,0.00002828,0.00001016,-0.00
 000801,0.00004124,-0.00000023,0.00001447,0.00000294,-0.00001193,-0.000
 00103,0.00000039,-0.00001107,-0.00000873,-0.00000912,0.00000943,-0.000
 01513,0.00001118,0.00000339,0.00002362,-0.00004106,-0.00000227,0.00000
 423,-0.00002532,0.00000042,0.00000484,-0.00001260,0.00000450,-0.000003
 96,0.00001475,0.00000073\\\@


 THE SCIENTIFIC THEORIST IS NOT TO BE ENVIED. FOR NATURE, OR MORE
 PRECISELY EXPERIMENT, IS AN INEXORABLE AND NOT VERY FRIENDLY JUDGE OF HIS
 WORK.  IT NEVER SAYS "YES" TO A THEORY. IN THE MOST FAVORABLE CASES
 IT SAYS "MAYBE", AND IN THE GREAT MAJORITY OF CASES SIMPLY "NO"...
 PROBABLY EVERY THEORY WILL SOME DAY EXPERIENCE ITS "NO" - MOST
 THEORIES, SOON AFTER CONCEPTION.  -- A.EINSTEIN, NOV 11, 1922.
 Job cpu time:       1 days 14 hours 56 minutes  5.6 seconds.
 File lengths (MBytes):  RWF=   2450 Int=      0 D2E=      0 Chk=     25 Scr=      1
 Normal termination of Gaussian 09 at Sun Jun  9 10:28:46 2019.
