 Entering Gaussian System, Link 0=g09
 Input=opt_freq_DQ.gjf
 Output=opt_freq_DQ.log
 Initial command:
 /opt/local/g09/l1.exe "/home/scratch/vidal/Gau-18353.inp" -scrdir="/home/scratch/vidal/"
 Default is to use a total of  16 processors:
                               16 via shared-memory
                                1 via Linda
 Entering Link 1 = /opt/local/g09/l1.exe PID=     18354.
  
 Copyright (c) 1988,1990,1992,1993,1995,1998,2003,2009,2013,
            Gaussian, Inc.  All Rights Reserved.
  
 This is part of the Gaussian(R) 09 program.  It is based on
 the Gaussian(R) 03 system (copyright 2003, Gaussian, Inc.),
 the Gaussian(R) 98 system (copyright 1998, Gaussian, Inc.),
 the Gaussian(R) 94 system (copyright 1995, Gaussian, Inc.),
 the Gaussian 92(TM) system (copyright 1992, Gaussian, Inc.),
 the Gaussian 90(TM) system (copyright 1990, Gaussian, Inc.),
 the Gaussian 88(TM) system (copyright 1988, Gaussian, Inc.),
 the Gaussian 86(TM) system (copyright 1986, Carnegie Mellon
 University), and the Gaussian 82(TM) system (copyright 1983,
 Carnegie Mellon University). Gaussian is a federally registered
 trademark of Gaussian, Inc.
  
 This software contains proprietary and confidential information,
 including trade secrets, belonging to Gaussian, Inc.
  
 This software is provided under written license and may be
 used, copied, transmitted, or stored only in accord with that
 written license.
  
 The following legend is applicable only to US Government
 contracts under FAR:
  
                    RESTRICTED RIGHTS LEGEND
  
 Use, reproduction and disclosure by the US Government is
 subject to restrictions as set forth in subparagraphs (a)
 and (c) of the Commercial Computer Software - Restricted
 Rights clause in FAR 52.227-19.
  
 Gaussian, Inc.
 340 Quinnipiac St., Bldg. 40, Wallingford CT 06492
  
  
 ---------------------------------------------------------------
 Warning -- This program may not be used in any manner that
 competes with the business of Gaussian, Inc. or will provide
 assistance to any competitor of Gaussian, Inc.  The licensee
 of this program is prohibited from giving any competitor of
 Gaussian, Inc. access to this program.  By using this program,
 the user acknowledges that Gaussian, Inc. is engaged in the
 business of creating and licensing software in the field of
 computational chemistry and represents and warrants to the
 licensee that it is not a competitor of Gaussian, Inc. and that
 it will not use this program in any manner prohibited above.
 ---------------------------------------------------------------
  

 Cite this work as:
 Gaussian 09, Revision D.01,
 M. J. Frisch, G. W. Trucks, H. B. Schlegel, G. E. Scuseria, 
 M. A. Robb, J. R. Cheeseman, G. Scalmani, V. Barone, B. Mennucci, 
 G. A. Petersson, H. Nakatsuji, M. Caricato, X. Li, H. P. Hratchian, 
 A. F. Izmaylov, J. Bloino, G. Zheng, J. L. Sonnenberg, M. Hada, 
 M. Ehara, K. Toyota, R. Fukuda, J. Hasegawa, M. Ishida, T. Nakajima, 
 Y. Honda, O. Kitao, H. Nakai, T. Vreven, J. A. Montgomery, Jr., 
 J. E. Peralta, F. Ogliaro, M. Bearpark, J. J. Heyd, E. Brothers, 
 K. N. Kudin, V. N. Staroverov, T. Keith, R. Kobayashi, J. Normand, 
 K. Raghavachari, A. Rendell, J. C. Burant, S. S. Iyengar, J. Tomasi, 
 M. Cossi, N. Rega, J. M. Millam, M. Klene, J. E. Knox, J. B. Cross, 
 V. Bakken, C. Adamo, J. Jaramillo, R. Gomperts, R. E. Stratmann, 
 O. Yazyev, A. J. Austin, R. Cammi, C. Pomelli, J. W. Ochterski, 
 R. L. Martin, K. Morokuma, V. G. Zakrzewski, G. A. Voth, 
 P. Salvador, J. J. Dannenberg, S. Dapprich, A. D. Daniels, 
 O. Farkas, J. B. Foresman, J. V. Ortiz, J. Cioslowski, 
 and D. J. Fox, Gaussian, Inc., Wallingford CT, 2013.
 
 ******************************************
 Gaussian 09:  EM64L-G09RevD.01 24-Apr-2013
                10-Jun-2019 
 ******************************************
 -------------------------------------------------------
 # opt freq wb97xd nosymm def2svp integral=ultrafinegrid
 -------------------------------------------------------
 1/14=-1,18=20,19=15,26=4,38=1/1,3;
 2/9=110,12=2,15=1,17=6,18=5,40=1/2;
 3/5=43,7=101,11=2,16=1,25=1,30=1,71=1,74=-58,75=-5/1,2,3;
 4//1;
 5/5=2,38=5/2;
 6/7=2,8=2,9=2,10=2,28=1/1;
 7/30=1/1,2,3,16;
 1/14=-1,18=20,19=15,26=4/3(2);
 2/9=110,15=1/2;
 99//99;
 2/9=110,15=1/2;
 3/5=43,7=101,11=2,16=1,25=1,30=1,71=1,74=-58,75=-5/1,2,3;
 4/5=5,16=3,69=1/1;
 5/5=2,38=5/2;
 7/30=1/1,2,3,16;
 1/14=-1,18=20,19=15,26=4/3(-5);
 2/9=110,15=1/2;
 6/7=2,8=2,9=2,10=2,19=2,28=1/1;
 99/9=1/99;
 -----
 Title
 -----
 Symbolic Z-matrix:
 Charge =  2 Multiplicity = 1
 C                    -1.66462   0.36697   2.26437 
 N                    -2.42448  -0.77032   2.25836 
 C                    -2.32096   1.59874   2.2759 
 C                    -1.78052  -2.08929   2.18881 
 C                    -3.77874  -0.71803   2.24526 
 C                    -0.19798   0.25807   2.2713 
 C                    -3.70895   1.66338   2.2536 
 H                    -1.74626   2.52153   2.30758 
 C                    -0.46483  -2.08364   2.92077 
 H                    -2.44808  -2.8274    2.64912 
 H                    -1.65297  -2.35405   1.12799 
 C                    -4.45402   0.48028   2.24839 
 H                    -4.29541  -1.67916   2.24404 
 N                     0.37898  -0.9693    2.46798 
 C                     0.63709   1.35745   2.09827 
 H                    -4.20837   2.63385   2.26801 
 H                     0.05983  -3.02664   2.72745 
 H                    -0.60612  -1.9829    4.00881 
 H                    -5.54419   0.48547   2.24675 
 C                     1.71883  -1.13734   2.42212 
 C                     2.01725   1.20377   2.07933 
 H                     0.21228   2.3447    1.93013 
 C                     2.56856  -0.07272   2.22103 
 H                     2.08298  -2.15419   2.5752 
 H                     2.65842   2.07579   1.94288 
 H                     3.64422  -0.24443   2.18854 
 

 GradGradGradGradGradGradGradGradGradGradGradGradGradGradGradGradGradGrad
 Berny optimization.
 Initialization pass.
                           ----------------------------
                           !    Initial Parameters    !
                           ! (Angstroms and Degrees)  !
 --------------------------                            --------------------------
 ! Name  Definition              Value          Derivative Info.                !
 --------------------------------------------------------------------------------
 ! R1    R(1,2)                  1.3678         estimate D2E/DX2                !
 ! R2    R(1,3)                  1.3958         estimate D2E/DX2                !
 ! R3    R(1,6)                  1.4707         estimate D2E/DX2                !
 ! R4    R(2,4)                  1.4694         estimate D2E/DX2                !
 ! R5    R(2,5)                  1.3553         estimate D2E/DX2                !
 ! R6    R(3,7)                  1.3897         estimate D2E/DX2                !
 ! R7    R(3,8)                  1.0876         estimate D2E/DX2                !
 ! R8    R(4,9)                  1.5056         estimate D2E/DX2                !
 ! R9    R(4,10)                 1.0965         estimate D2E/DX2                !
 ! R10   R(4,11)                 1.1008         estimate D2E/DX2                !
 ! R11   R(5,12)                 1.3755         estimate D2E/DX2                !
 ! R12   R(5,13)                 1.0912         estimate D2E/DX2                !
 ! R13   R(6,14)                 1.3704         estimate D2E/DX2                !
 ! R14   R(6,15)                 1.3914         estimate D2E/DX2                !
 ! R15   R(7,12)                 1.3982         estimate D2E/DX2                !
 ! R16   R(7,16)                 1.0915         estimate D2E/DX2                !
 ! R17   R(9,14)                 1.4693         estimate D2E/DX2                !
 ! R18   R(9,17)                 1.0963         estimate D2E/DX2                !
 ! R19   R(9,18)                 1.1018         estimate D2E/DX2                !
 ! R20   R(12,19)                1.0902         estimate D2E/DX2                !
 ! R21   R(14,20)                1.3511         estimate D2E/DX2                !
 ! R22   R(15,21)                1.3888         estimate D2E/DX2                !
 ! R23   R(15,22)                1.0878         estimate D2E/DX2                !
 ! R24   R(20,23)                1.3769         estimate D2E/DX2                !
 ! R25   R(20,24)                1.0909         estimate D2E/DX2                !
 ! R26   R(21,23)                1.3977         estimate D2E/DX2                !
 ! R27   R(21,25)                1.0909         estimate D2E/DX2                !
 ! R28   R(23,26)                1.0898         estimate D2E/DX2                !
 ! A1    A(2,1,3)              118.2026         estimate D2E/DX2                !
 ! A2    A(2,1,6)              119.5025         estimate D2E/DX2                !
 ! A3    A(3,1,6)              122.2924         estimate D2E/DX2                !
 ! A4    A(1,2,4)              120.205          estimate D2E/DX2                !
 ! A5    A(1,2,5)              121.5377         estimate D2E/DX2                !
 ! A6    A(4,2,5)              118.1686         estimate D2E/DX2                !
 ! A7    A(1,3,7)              120.7026         estimate D2E/DX2                !
 ! A8    A(1,3,8)              120.0367         estimate D2E/DX2                !
 ! A9    A(7,3,8)              119.26           estimate D2E/DX2                !
 ! A10   A(2,4,9)              110.8904         estimate D2E/DX2                !
 ! A11   A(2,4,10)             108.5152         estimate D2E/DX2                !
 ! A12   A(2,4,11)             108.1972         estimate D2E/DX2                !
 ! A13   A(9,4,10)             109.2961         estimate D2E/DX2                !
 ! A14   A(9,4,11)             111.602          estimate D2E/DX2                !
 ! A15   A(10,4,11)            108.2517         estimate D2E/DX2                !
 ! A16   A(2,5,12)             121.6106         estimate D2E/DX2                !
 ! A17   A(2,5,13)             116.0495         estimate D2E/DX2                !
 ! A18   A(12,5,13)            122.3361         estimate D2E/DX2                !
 ! A19   A(1,6,14)             119.1334         estimate D2E/DX2                !
 ! A20   A(1,6,15)             122.6448         estimate D2E/DX2                !
 ! A21   A(14,6,15)            118.2188         estimate D2E/DX2                !
 ! A22   A(3,7,12)             119.534          estimate D2E/DX2                !
 ! A23   A(3,7,16)             119.8764         estimate D2E/DX2                !
 ! A24   A(12,7,16)            120.5681         estimate D2E/DX2                !
 ! A25   A(4,9,14)             110.7867         estimate D2E/DX2                !
 ! A26   A(4,9,17)             109.2232         estimate D2E/DX2                !
 ! A27   A(4,9,18)             111.6156         estimate D2E/DX2                !
 ! A28   A(14,9,17)            108.855          estimate D2E/DX2                !
 ! A29   A(14,9,18)            107.9765         estimate D2E/DX2                !
 ! A30   A(17,9,18)            108.3096         estimate D2E/DX2                !
 ! A31   A(5,12,7)             118.3966         estimate D2E/DX2                !
 ! A32   A(5,12,19)            119.6751         estimate D2E/DX2                !
 ! A33   A(7,12,19)            121.9283         estimate D2E/DX2                !
 ! A34   A(6,14,9)             118.7966         estimate D2E/DX2                !
 ! A35   A(6,14,20)            121.6021         estimate D2E/DX2                !
 ! A36   A(9,14,20)            119.055          estimate D2E/DX2                !
 ! A37   A(6,15,21)            120.71           estimate D2E/DX2                !
 ! A38   A(6,15,22)            120.1278         estimate D2E/DX2                !
 ! A39   A(21,15,22)           119.1034         estimate D2E/DX2                !
 ! A40   A(14,20,23)           121.3843         estimate D2E/DX2                !
 ! A41   A(14,20,24)           116.2439         estimate D2E/DX2                !
 ! A42   A(23,20,24)           122.3579         estimate D2E/DX2                !
 ! A43   A(15,21,23)           119.451          estimate D2E/DX2                !
 ! A44   A(15,21,25)           119.8221         estimate D2E/DX2                !
 ! A45   A(23,21,25)           120.7231         estimate D2E/DX2                !
 ! A46   A(20,23,21)           118.5246         estimate D2E/DX2                !
 ! A47   A(20,23,26)           119.4502         estimate D2E/DX2                !
 ! A48   A(21,23,26)           122.0213         estimate D2E/DX2                !
 ! D1    D(3,1,2,4)            177.4092         estimate D2E/DX2                !
 ! D2    D(3,1,2,5)              0.8968         estimate D2E/DX2                !
 ! D3    D(6,1,2,4)             -3.1605         estimate D2E/DX2                !
 ! D4    D(6,1,2,5)           -179.673          estimate D2E/DX2                !
 ! D5    D(2,1,3,7)             -1.3182         estimate D2E/DX2                !
 ! D6    D(2,1,3,8)            178.3769         estimate D2E/DX2                !
 ! D7    D(6,1,3,7)            179.2684         estimate D2E/DX2                !
 ! D8    D(6,1,3,8)             -1.0365         estimate D2E/DX2                !
 ! D9    D(2,1,6,14)            -9.4409         estimate D2E/DX2                !
 ! D10   D(2,1,6,15)           171.1953         estimate D2E/DX2                !
 ! D11   D(3,1,6,14)           169.9652         estimate D2E/DX2                !
 ! D12   D(3,1,6,15)            -9.3986         estimate D2E/DX2                !
 ! D13   D(1,2,4,9)             33.9067         estimate D2E/DX2                !
 ! D14   D(1,2,4,10)           153.9614         estimate D2E/DX2                !
 ! D15   D(1,2,4,11)           -88.7956         estimate D2E/DX2                !
 ! D16   D(5,2,4,9)           -149.4649         estimate D2E/DX2                !
 ! D17   D(5,2,4,10)           -29.4102         estimate D2E/DX2                !
 ! D18   D(5,2,4,11)            87.8328         estimate D2E/DX2                !
 ! D19   D(1,2,5,12)            -0.5377         estimate D2E/DX2                !
 ! D20   D(1,2,5,13)          -179.8451         estimate D2E/DX2                !
 ! D21   D(4,2,5,12)          -177.1188         estimate D2E/DX2                !
 ! D22   D(4,2,5,13)             3.5737         estimate D2E/DX2                !
 ! D23   D(1,3,7,12)             1.3717         estimate D2E/DX2                !
 ! D24   D(1,3,7,16)           179.6957         estimate D2E/DX2                !
 ! D25   D(8,3,7,12)          -178.3258         estimate D2E/DX2                !
 ! D26   D(8,3,7,16)            -0.0017         estimate D2E/DX2                !
 ! D27   D(2,4,9,14)           -51.7252         estimate D2E/DX2                !
 ! D28   D(2,4,9,17)          -171.6227         estimate D2E/DX2                !
 ! D29   D(2,4,9,18)            68.6394         estimate D2E/DX2                !
 ! D30   D(10,4,9,14)         -171.3133         estimate D2E/DX2                !
 ! D31   D(10,4,9,17)           68.7892         estimate D2E/DX2                !
 ! D32   D(10,4,9,18)          -50.9488         estimate D2E/DX2                !
 ! D33   D(11,4,9,14)           68.9815         estimate D2E/DX2                !
 ! D34   D(11,4,9,17)          -50.916          estimate D2E/DX2                !
 ! D35   D(11,4,9,18)         -170.6539         estimate D2E/DX2                !
 ! D36   D(2,5,12,7)             0.5575         estimate D2E/DX2                !
 ! D37   D(2,5,12,19)         -179.4431         estimate D2E/DX2                !
 ! D38   D(13,5,12,7)          179.8211         estimate D2E/DX2                !
 ! D39   D(13,5,12,19)          -0.1795         estimate D2E/DX2                !
 ! D40   D(1,6,14,9)           -11.6766         estimate D2E/DX2                !
 ! D41   D(1,6,14,20)          176.8826         estimate D2E/DX2                !
 ! D42   D(15,6,14,9)          167.7155         estimate D2E/DX2                !
 ! D43   D(15,6,14,20)          -3.7254         estimate D2E/DX2                !
 ! D44   D(1,6,15,21)         -178.4216         estimate D2E/DX2                !
 ! D45   D(1,6,15,22)           -1.234          estimate D2E/DX2                !
 ! D46   D(14,6,15,21)           2.2091         estimate D2E/DX2                !
 ! D47   D(14,6,15,22)         179.3966         estimate D2E/DX2                !
 ! D48   D(3,7,12,5)            -0.9679         estimate D2E/DX2                !
 ! D49   D(3,7,12,19)          179.0327         estimate D2E/DX2                !
 ! D50   D(16,7,12,5)         -179.2802         estimate D2E/DX2                !
 ! D51   D(16,7,12,19)           0.7205         estimate D2E/DX2                !
 ! D52   D(4,9,14,6)            42.3732         estimate D2E/DX2                !
 ! D53   D(4,9,14,20)         -145.9646         estimate D2E/DX2                !
 ! D54   D(17,9,14,6)          162.4907         estimate D2E/DX2                !
 ! D55   D(17,9,14,20)         -25.8471         estimate D2E/DX2                !
 ! D56   D(18,9,14,6)          -80.1347         estimate D2E/DX2                !
 ! D57   D(18,9,14,20)          91.5276         estimate D2E/DX2                !
 ! D58   D(6,14,20,23)           2.2701         estimate D2E/DX2                !
 ! D59   D(6,14,20,24)        -179.0553         estimate D2E/DX2                !
 ! D60   D(9,14,20,23)        -169.1492         estimate D2E/DX2                !
 ! D61   D(9,14,20,24)           9.5254         estimate D2E/DX2                !
 ! D62   D(6,15,21,23)           0.7172         estimate D2E/DX2                !
 ! D63   D(6,15,21,25)        -179.989          estimate D2E/DX2                !
 ! D64   D(22,15,21,23)       -176.4988         estimate D2E/DX2                !
 ! D65   D(22,15,21,25)          2.795          estimate D2E/DX2                !
 ! D66   D(14,20,23,21)          0.772          estimate D2E/DX2                !
 ! D67   D(14,20,23,26)       -179.9358         estimate D2E/DX2                !
 ! D68   D(24,20,23,21)       -177.8206         estimate D2E/DX2                !
 ! D69   D(24,20,23,26)          1.4716         estimate D2E/DX2                !
 ! D70   D(15,21,23,20)         -2.2101         estimate D2E/DX2                !
 ! D71   D(15,21,23,26)        178.5169         estimate D2E/DX2                !
 ! D72   D(25,21,23,20)        178.5026         estimate D2E/DX2                !
 ! D73   D(25,21,23,26)         -0.7704         estimate D2E/DX2                !
 --------------------------------------------------------------------------------
 Trust Radius=3.00D-01 FncErr=1.00D-07 GrdErr=1.00D-06
 Number of steps in this run=    156 maximum allowed number of steps=    156.
 GradGradGradGradGradGradGradGradGradGradGradGradGradGradGradGradGradGrad

                          Input orientation:                          
 ---------------------------------------------------------------------
 Center     Atomic      Atomic             Coordinates (Angstroms)
 Number     Number       Type             X           Y           Z
 ---------------------------------------------------------------------
      1          6           0       -1.664624    0.366969    2.264368
      2          7           0       -2.424482   -0.770323    2.258356
      3          6           0       -2.320957    1.598736    2.275895
      4          6           0       -1.780524   -2.089288    2.188808
      5          6           0       -3.778739   -0.718032    2.245263
      6          6           0       -0.197977    0.258074    2.271301
      7          6           0       -3.708951    1.663381    2.253600
      8          1           0       -1.746262    2.521532    2.307584
      9          6           0       -0.464831   -2.083636    2.920771
     10          1           0       -2.448080   -2.827402    2.649115
     11          1           0       -1.652974   -2.354049    1.127994
     12          6           0       -4.454022    0.480276    2.248387
     13          1           0       -4.295414   -1.679155    2.244040
     14          7           0        0.378984   -0.969302    2.467979
     15          6           0        0.637085    1.357450    2.098272
     16          1           0       -4.208369    2.633853    2.268009
     17          1           0        0.059833   -3.026638    2.727450
     18          1           0       -0.606115   -1.982898    4.008807
     19          1           0       -5.544188    0.485467    2.246751
     20          6           0        1.718828   -1.137337    2.422121
     21          6           0        2.017251    1.203765    2.079329
     22          1           0        0.212279    2.344699    1.930131
     23          6           0        2.568563   -0.072716    2.221030
     24          1           0        2.082980   -2.154190    2.575197
     25          1           0        2.658417    2.075792    1.942877
     26          1           0        3.644218   -0.244425    2.188543
 ---------------------------------------------------------------------
                    Distance matrix (angstroms):
                    1          2          3          4          5
     1  C    0.000000
     2  N    1.367791   0.000000
     3  C    1.395764   2.371385   0.000000
     4  C    2.460151   1.469417   3.728428   0.000000
     5  C    2.376357   1.355329   2.737422   2.424127   0.000000
     6  C    1.470700   2.452569   2.510864   2.832202   3.711511
     7  C    2.420759   2.751872   1.389677   4.219663   2.382450
     8  H    2.156542   3.361356   1.087580   4.612477   3.824869
     9  C    2.806391   2.450269   4.173839   1.505606   3.647351
    10  H    3.311471   2.093997   4.443664   1.096506   2.526498
    11  H    2.948800   2.093115   4.169939   1.100770   2.905808
    12  C    2.791744   2.383932   2.408667   3.708612   1.375485
    13  H    3.332881   2.080040   3.826756   2.548712   1.091197
    14  N    2.450186   2.818325   3.731139   2.448628   4.171259
    15  C    2.511276   3.731787   2.973177   4.211061   4.881468
    16  H    3.407259   3.843275   2.152639   5.311192   3.379383
    17  H    3.834679   3.388632   5.221700   2.134403   4.505197
    18  H    3.112135   2.800156   4.332640   2.168629   3.843893
    19  H    3.881413   3.362991   3.410196   4.560470   2.136638
    20  C    3.706153   4.162756   4.881326   3.634021   5.516370
    21  C    3.780300   4.863956   4.360584   5.027850   6.108546
    22  H    2.746979   4.094338   2.663325   4.868102   5.040620
    23  C    4.256181   5.041681   5.167608   4.793971   6.380068
    24  H    4.527405   4.725748   5.793850   3.883320   6.044101
    25  H    4.659626   5.834017   5.013247   6.092009   7.023807
    26  H    5.344470   6.091844   6.244052   5.729864   7.438267
                    6          7          8          9         10
     6  C    0.000000
     7  C    3.781817   0.000000
     8  H    2.742580   2.142775   0.000000
     9  C    2.444714   5.000957   4.819298   0.000000
    10  H    3.837430   4.681171   5.405579   2.135477   0.000000
    11  H    3.201149   4.651212   5.017113   2.167685   1.780468
    12  C    4.261903   1.398176   3.391489   4.789508   3.889103
    13  H    4.532393   3.393608   4.914060   3.910874   2.212510
    14  N    1.370408   4.867052   4.090027   1.469280   3.387866
    15  C    1.391364   4.359558   2.660684   3.705644   5.228256
    16  H    4.661285   1.091532   2.464985   6.057630   5.750580
    17  H    3.326240   6.035275   5.849825   1.096311   2.517034
    18  H    2.864866   5.099382   4.948129   1.101786   2.440243
    19  H    5.351101   2.180739   4.309699   5.731881   4.552239
    20  C    2.375723   6.110090   5.040564   2.431563   4.502329
    21  C    2.416282   5.747261   3.994076   4.204255   6.042693
    22  H    2.153767   3.993103   2.002404   4.588028   5.860467
    23  C    2.786699   6.513238   5.035408   3.706065   5.739186
    24  H    3.333787   6.944331   6.049553   2.572108   4.581395
    25  H    3.401610   6.388271   4.442172   5.292617   7.114520
    26  H    3.875799   7.596911   6.059865   4.561046   6.633249
                   11         12         13         14         15
    11  H    0.000000
    12  C    4.139390   0.000000
    13  H    2.946783   2.165252   0.000000
    14  N    2.800346   5.050489   4.733290   0.000000
    15  C    4.467777   5.168301   5.794115   2.370037   0.000000
    16  H    5.719165   2.167631   4.313953   5.836653   5.013625
    17  H    2.438102   5.736099   4.584493   2.098050   4.466465
    18  H    3.087515   4.896192   4.100925   2.090920   4.043960
    19  H    4.945302   1.090180   2.499006   6.103217   6.244240
    20  C    3.811063   6.383646   6.041224   1.351118   2.738432
    21  C    5.199387   6.513785   6.941765   2.749034   1.388825
    22  H    5.118674   5.035050   6.050557   3.361499   1.087838
    23  C    4.921441   7.044377   7.049493   2.378888   2.406460
    24  H    4.011445   7.055467   6.404626   2.078234   3.827491
    25  H    6.235032   7.295601   7.908609   3.839810   2.150801
    26  H    5.799614   8.130822   8.068413   3.356380   3.408372
                   16         17         18         19         20
    16  H    0.000000
    17  H    7.104210   0.000000
    18  H    6.109092   1.781784   0.000000
    19  H    2.529906   6.631064   5.795018   0.000000
    20  C    7.026898   2.532775   2.939031   7.444169   0.000000
    21  C    6.390547   4.706151   4.556287   7.597325   2.384811
    22  H    4.442961   5.432331   4.870191   6.057549   3.825744
    23  C    7.297570   3.908432   4.113821   8.131971   1.376919
    24  H    7.912066   2.208500   3.052181   8.077707   1.090884
    25  H    6.897093   5.779532   5.603410   8.360873   3.381819
    26  H    8.363846   4.569349   4.939735   9.217534   2.135176
                   21         22         23         24         25
    21  C    0.000000
    22  H    2.140541   0.000000
    23  C    1.397651   3.388302   0.000000
    24  H    3.395006   4.914838   2.166509   0.000000
    25  H    1.090937   2.460907   2.168301   4.315519   0.000000
    26  H    2.180872   4.306802   1.089758   2.496832   2.532896
                   26
    26  H    0.000000
 Symmetry turned off by external request.
 Stoichiometry    C12H12N2(2+)
 Framework group  C1[X(C12H12N2)]
 Deg. of freedom    72
 Full point group                 C1      NOp   1
 Rotational constants (GHZ):      1.5769761      0.5544679      0.4162050
 Standard basis: def2SVP (5D, 7F)
   256 basis functions,   434 primitive gaussians,   270 cartesian basis functions
    48 alpha electrons       48 beta electrons
       nuclear repulsion energy       854.6103361790 Hartrees.
 NAtoms=   26 NActive=   26 NUniq=   26 SFac= 1.00D+00 NAtFMM=   60 NAOKFM=F Big=F
 Integral buffers will be    131072 words long.
 Raffenetti 2 integral format.
 Two-electron integral symmetry is turned off.
 Nuclear repulsion after empirical dispersion term =      854.5931440053 Hartrees.
 One-electron integrals computed using PRISM.
   1 Symmetry operations used in ECPInt.
 ECPInt:  NShTT=    7260 NPrTT=   26324 LenC2=    7022 LenP2D=   19079.
 LDataN:  DoStor=T MaxTD1= 4 Len=   56
 NBasis=   256 RedAO= T EigKep=  4.24D-04  NBF=   256
 NBsUse=   256 1.00D-06 EigRej= -1.00D+00 NBFU=   256
 ExpMin= 1.22D-01 ExpMax= 1.71D+03 ExpMxC= 2.58D+02 IAcc=3 IRadAn=         5 AccDes= 0.00D+00
 Harris functional with IExCor= 4639 and IRadAn=       5 diagonalized for initial guess.
 HarFok:  IExCor= 4639 AccDes= 0.00D+00 IRadAn=         5 IDoV= 1 UseB2=F ITyADJ=14
 ICtDFT=  3500011 ScaDFX=  1.000000  1.000000  1.000000  1.000000
 FoFCou: FMM=F IPFlag=           0 FMFlag=      100000 FMFlg1=           0
         NFxFlg=           0 DoJE=T BraDBF=F KetDBF=T FulRan=T
         wScrn=  0.000000 ICntrl=     500 IOpCl=  0 I1Cent=   200000004 NGrid=           0
         NMat0=    1 NMatS0=      1 NMatT0=    0 NMatD0=    1 NMtDS0=    0 NMtDT0=    0
 Symmetry not used in FoFCou.
 Keep R1 ints in memory in canonical form, NReq=1092374074.
 Requested convergence on RMS density matrix=1.00D-08 within 128 cycles.
 Requested convergence on MAX density matrix=1.00D-06.
 Requested convergence on             energy=1.00D-06.
 No special actions if energy rises.
 Integral accuracy reduced to 1.0D-05 until final iterations.
 Initial convergence to 1.0D-05 achieved.  Increase integral accuracy.
 SCF Done:  E(RwB97XD) =  -572.824643223     A.U. after   15 cycles
            NFock= 15  Conv=0.75D-08     -V/T= 2.0109

 **********************************************************************

            Population analysis using the SCF density.

 **********************************************************************

 Alpha  occ. eigenvalues --  -14.86718 -14.86653 -10.70087 -10.70015 -10.67528
 Alpha  occ. eigenvalues --  -10.67442 -10.66348 -10.66277 -10.63445 -10.63425
 Alpha  occ. eigenvalues --  -10.63396 -10.63353 -10.62215 -10.62188  -1.45278
 Alpha  occ. eigenvalues --   -1.41968  -1.26556  -1.23942  -1.23501  -1.17859
 Alpha  occ. eigenvalues --   -1.17502  -1.09605  -1.08963  -1.07025  -1.04771
 Alpha  occ. eigenvalues --   -0.99610  -0.97856  -0.93363  -0.93123  -0.90831
 Alpha  occ. eigenvalues --   -0.90293  -0.87646  -0.87212  -0.86291  -0.85725
 Alpha  occ. eigenvalues --   -0.85117  -0.84472  -0.80978  -0.80623  -0.77673
 Alpha  occ. eigenvalues --   -0.77431  -0.76707  -0.75675  -0.75458  -0.70625
 Alpha  occ. eigenvalues --   -0.69490  -0.68702  -0.63845
 Alpha virt. eigenvalues --   -0.34229  -0.28447  -0.28281  -0.22507  -0.15056
 Alpha virt. eigenvalues --   -0.12996  -0.12571  -0.11838  -0.10869  -0.09236
 Alpha virt. eigenvalues --   -0.08973  -0.08512  -0.08067  -0.06089  -0.05197
 Alpha virt. eigenvalues --   -0.04760  -0.04300  -0.03550  -0.02597  -0.01692
 Alpha virt. eigenvalues --    0.00336   0.02254   0.02789   0.03690   0.04483
 Alpha virt. eigenvalues --    0.05787   0.05926   0.06940   0.07897   0.10364
 Alpha virt. eigenvalues --    0.12649   0.15064   0.15643   0.17312   0.17789
 Alpha virt. eigenvalues --    0.18568   0.19172   0.20932   0.21589   0.22017
 Alpha virt. eigenvalues --    0.22155   0.24435   0.25677   0.26446   0.26616
 Alpha virt. eigenvalues --    0.27219   0.28215   0.29112   0.30056   0.32377
 Alpha virt. eigenvalues --    0.32913   0.34690   0.35280   0.38540   0.39235
 Alpha virt. eigenvalues --    0.39916   0.40153   0.42468   0.42527   0.43318
 Alpha virt. eigenvalues --    0.43602   0.44271   0.44645   0.45217   0.45624
 Alpha virt. eigenvalues --    0.46757   0.47022   0.48309   0.49341   0.49622
 Alpha virt. eigenvalues --    0.50890   0.51076   0.51748   0.53703   0.54587
 Alpha virt. eigenvalues --    0.55391   0.56366   0.58105   0.58846   0.59485
 Alpha virt. eigenvalues --    0.59874   0.67702   0.67946   0.70338   0.71741
 Alpha virt. eigenvalues --    0.73775   0.76649   0.77886   0.80193   0.86709
 Alpha virt. eigenvalues --    0.88595   0.89405   0.93251   0.95070   0.96610
 Alpha virt. eigenvalues --    0.96971   0.98234   0.99616   1.00895   1.02781
 Alpha virt. eigenvalues --    1.03354   1.04146   1.04539   1.08012   1.09284
 Alpha virt. eigenvalues --    1.10116   1.10811   1.12252   1.15074   1.15742
 Alpha virt. eigenvalues --    1.17341   1.18874   1.29994   1.31861   1.38061
 Alpha virt. eigenvalues --    1.40057   1.45533   1.46063   1.46565   1.47225
 Alpha virt. eigenvalues --    1.48464   1.50065   1.51139   1.51325   1.52380
 Alpha virt. eigenvalues --    1.52926   1.53333   1.54309   1.54529   1.56596
 Alpha virt. eigenvalues --    1.57342   1.58672   1.59139   1.60403   1.60924
 Alpha virt. eigenvalues --    1.61799   1.64130   1.64792   1.65944   1.66457
 Alpha virt. eigenvalues --    1.69438   1.69633   1.70860   1.72415   1.72863
 Alpha virt. eigenvalues --    1.74117   1.74291   1.76419   1.77409   1.80006
 Alpha virt. eigenvalues --    1.82197   1.85049   1.86498   1.89218   1.89314
 Alpha virt. eigenvalues --    1.91020   1.91181   1.91951   1.93284   1.98450
 Alpha virt. eigenvalues --    1.99977   2.00412   2.03474   2.06884   2.07831
 Alpha virt. eigenvalues --    2.08986   2.10048   2.12992   2.14186   2.14999
 Alpha virt. eigenvalues --    2.16598   2.18314   2.19288   2.21467   2.22640
 Alpha virt. eigenvalues --    2.25328   2.26743   2.34910   2.35576   2.39643
 Alpha virt. eigenvalues --    2.39820   2.44432   2.44983   2.46570   2.47755
 Alpha virt. eigenvalues --    2.48649   2.51641   2.51941   2.54026   2.55912
 Alpha virt. eigenvalues --    2.58096   2.58401   2.64022   2.68592   2.69525
 Alpha virt. eigenvalues --    2.72077   2.75032   2.78778   2.81204   2.82280
 Alpha virt. eigenvalues --    2.83098   2.89548   2.92071   2.93549   3.00536
 Alpha virt. eigenvalues --    3.21222   3.37185   3.48168
          Condensed to atoms (all electrons):
               1          2          3          4          5          6
     1  C    5.141401   0.410591   0.424148  -0.045601  -0.044273   0.152129
     2  N    0.410591   6.461880  -0.050102   0.256939   0.392730  -0.070046
     3  C    0.424148  -0.050102   4.955106   0.004286  -0.071972  -0.045577
     4  C   -0.045601   0.256939   0.004286   4.590318  -0.032082  -0.014941
     5  C   -0.044273   0.392730  -0.071972  -0.032082   4.780857   0.005357
     6  C    0.152129  -0.070046  -0.045577  -0.014941   0.005357   5.144286
     7  C   -0.004720  -0.033297   0.398395   0.000041   0.000839   0.015787
     8  H   -0.018488   0.003441   0.425325  -0.000077   0.000035  -0.029530
     9  C   -0.010183  -0.032610  -0.000185   0.426296   0.005302  -0.042769
    10  H    0.002376  -0.013354  -0.000091   0.394912  -0.004442   0.000533
    11  H   -0.002033  -0.024819  -0.000362   0.403421  -0.002037   0.002232
    12  C   -0.058559  -0.029478   0.028871   0.004617   0.444950   0.000797
    13  H    0.002882  -0.032756   0.000434  -0.004115   0.411690  -0.000187
    14  N   -0.071130  -0.014107   0.004980  -0.031971  -0.000369   0.406644
    15  C   -0.043768   0.004892  -0.008936  -0.000106   0.000124   0.430025
    16  H    0.010200   0.000048  -0.037982   0.000022   0.007860  -0.000292
    17  H    0.000546   0.003036   0.000020  -0.009922  -0.000120   0.002742
    18  H    0.001809  -0.002752  -0.000252  -0.018581   0.000175  -0.002454
    19  H   -0.000050   0.002917   0.007684  -0.000067  -0.033547   0.000020
    20  C    0.005555  -0.000358   0.000118   0.004356   0.000030  -0.045605
    21  C    0.015688  -0.000056   0.001429   0.000002  -0.000002  -0.005357
    22  H   -0.029345  -0.000077   0.005037  -0.000004   0.000015  -0.018627
    23  C    0.000936   0.000065  -0.000134  -0.000583  -0.000002  -0.057943
    24  H   -0.000185  -0.000010   0.000003   0.000481   0.000000   0.002945
    25  H   -0.000292   0.000000   0.000027   0.000000   0.000000   0.010339
    26  H    0.000020   0.000000  -0.000001   0.000003   0.000000  -0.000063
               7          8          9         10         11         12
     1  C   -0.004720  -0.018488  -0.010183   0.002376  -0.002033  -0.058559
     2  N   -0.033297   0.003441  -0.032610  -0.013354  -0.024819  -0.029478
     3  C    0.398395   0.425325  -0.000185  -0.000091  -0.000362   0.028871
     4  C    0.000041  -0.000077   0.426296   0.394912   0.403421   0.004617
     5  C    0.000839   0.000035   0.005302  -0.004442  -0.002037   0.444950
     6  C    0.015787  -0.029530  -0.042769   0.000533   0.002232   0.000797
     7  C    4.728353  -0.031658   0.000040  -0.000104   0.000136   0.409226
     8  H   -0.031658   0.546345  -0.000005   0.000003  -0.000001   0.007820
     9  C    0.000040  -0.000005   4.593020  -0.013103  -0.015861  -0.000653
    10  H   -0.000104   0.000003  -0.013103   0.503400  -0.009643   0.001745
    11  H    0.000136  -0.000001  -0.015861  -0.009643   0.506281  -0.000359
    12  C    0.409226   0.007820  -0.000653   0.001745  -0.000359   4.824597
    13  H    0.005471   0.000019   0.000690   0.001718  -0.000219  -0.017868
    14  N   -0.000055  -0.000079   0.255969   0.003093  -0.002441   0.000056
    15  C    0.001422   0.004977   0.003864   0.000021  -0.000164  -0.000132
    16  H    0.431755  -0.007600   0.000000   0.000000   0.000000  -0.044449
    17  H    0.000000   0.000000   0.391586  -0.001633  -0.005637   0.000010
    18  H    0.000029   0.000000   0.407022  -0.005535   0.004246  -0.000108
    19  H   -0.033249  -0.000110   0.000002  -0.000002   0.000006   0.429813
    20  C   -0.000001   0.000015  -0.030738  -0.000130   0.000269  -0.000002
    21  C   -0.000066   0.001306   0.000182   0.000000   0.000029   0.000003
    22  H    0.001272  -0.002217  -0.000079   0.000000   0.000000  -0.000053
    23  C    0.000003  -0.000052   0.004209   0.000010  -0.000122   0.000000
    24  H    0.000000   0.000000  -0.004341  -0.000022   0.000009   0.000000
    25  H   -0.000001   0.000006   0.000022   0.000000   0.000000   0.000000
    26  H    0.000000   0.000000  -0.000066   0.000000   0.000000   0.000000
              13         14         15         16         17         18
     1  C    0.002882  -0.071130  -0.043768   0.010200   0.000546   0.001809
     2  N   -0.032756  -0.014107   0.004892   0.000048   0.003036  -0.002752
     3  C    0.000434   0.004980  -0.008936  -0.037982   0.000020  -0.000252
     4  C   -0.004115  -0.031971  -0.000106   0.000022  -0.009922  -0.018581
     5  C    0.411690  -0.000369   0.000124   0.007860  -0.000120   0.000175
     6  C   -0.000187   0.406644   0.430025  -0.000292   0.002742  -0.002454
     7  C    0.005471  -0.000055   0.001422   0.431755   0.000000   0.000029
     8  H    0.000019  -0.000079   0.004977  -0.007600   0.000000   0.000000
     9  C    0.000690   0.255969   0.003864   0.000000   0.391586   0.407022
    10  H    0.001718   0.003093   0.000021   0.000000  -0.001633  -0.005535
    11  H   -0.000219  -0.002441  -0.000164   0.000000  -0.005637   0.004246
    12  C   -0.017868   0.000056  -0.000132  -0.044449   0.000010  -0.000108
    13  H    0.501291  -0.000015   0.000003  -0.000109  -0.000022   0.000002
    14  N   -0.000015   6.461787  -0.049367   0.000000  -0.012947  -0.026321
    15  C    0.000003  -0.049367   4.951208   0.000028  -0.000096  -0.000347
    16  H   -0.000109   0.000000   0.000028   0.516331   0.000000   0.000000
    17  H   -0.000022  -0.012947  -0.000096   0.000000   0.503023  -0.009757
    18  H    0.000002  -0.026321  -0.000347   0.000000  -0.009757   0.505987
    19  H   -0.006386   0.000000  -0.000001  -0.006408   0.000000   0.000000
    20  C    0.000000   0.393581  -0.072338   0.000000  -0.003862  -0.001453
    21  C    0.000000  -0.033937   0.395631  -0.000001  -0.000124   0.000239
    22  H    0.000000   0.003504   0.424934   0.000006   0.000003  -0.000001
    23  C    0.000000  -0.029291   0.029454   0.000000   0.001760  -0.000449
    24  H    0.000000  -0.032291   0.000440   0.000000   0.002222  -0.000228
    25  H    0.000000   0.000041  -0.037904   0.000000   0.000000  -0.000001
    26  H    0.000000   0.002947   0.007731   0.000000  -0.000001   0.000004
              19         20         21         22         23         24
     1  C   -0.000050   0.005555   0.015688  -0.029345   0.000936  -0.000185
     2  N    0.002917  -0.000358  -0.000056  -0.000077   0.000065  -0.000010
     3  C    0.007684   0.000118   0.001429   0.005037  -0.000134   0.000003
     4  C   -0.000067   0.004356   0.000002  -0.000004  -0.000583   0.000481
     5  C   -0.033547   0.000030  -0.000002   0.000015  -0.000002   0.000000
     6  C    0.000020  -0.045605  -0.005357  -0.018627  -0.057943   0.002945
     7  C   -0.033249  -0.000001  -0.000066   0.001272   0.000003   0.000000
     8  H   -0.000110   0.000015   0.001306  -0.002217  -0.000052   0.000000
     9  C    0.000002  -0.030738   0.000182  -0.000079   0.004209  -0.004341
    10  H   -0.000002  -0.000130   0.000000   0.000000   0.000010  -0.000022
    11  H    0.000006   0.000269   0.000029   0.000000  -0.000122   0.000009
    12  C    0.429813  -0.000002   0.000003  -0.000053   0.000000   0.000000
    13  H   -0.006386   0.000000   0.000000   0.000000   0.000000   0.000000
    14  N    0.000000   0.393581  -0.033937   0.003504  -0.029291  -0.032291
    15  C   -0.000001  -0.072338   0.395631   0.424934   0.029454   0.000440
    16  H   -0.006408   0.000000  -0.000001   0.000006   0.000000   0.000000
    17  H    0.000000  -0.003862  -0.000124   0.000003   0.001760   0.002222
    18  H    0.000000  -0.001453   0.000239  -0.000001  -0.000449  -0.000228
    19  H    0.500169   0.000000   0.000000   0.000000   0.000000   0.000000
    20  C    0.000000   4.781894   0.001982   0.000011   0.441015   0.410806
    21  C    0.000000   0.001982   4.729915  -0.031766   0.408523   0.005403
    22  H    0.000000   0.000011  -0.031766   0.546406   0.007878   0.000019
    23  C    0.000000   0.441015   0.408523   0.007878   4.830085  -0.016779
    24  H    0.000000   0.410806   0.005403   0.000019  -0.016779   0.500700
    25  H    0.000000   0.007794   0.431980  -0.007646  -0.044666  -0.000106
    26  H    0.000000  -0.033416  -0.033392  -0.000109   0.429897  -0.006406
              25         26
     1  C   -0.000292   0.000020
     2  N    0.000000   0.000000
     3  C    0.000027  -0.000001
     4  C    0.000000   0.000003
     5  C    0.000000   0.000000
     6  C    0.010339  -0.000063
     7  C   -0.000001   0.000000
     8  H    0.000006   0.000000
     9  C    0.000022  -0.000066
    10  H    0.000000   0.000000
    11  H    0.000000   0.000000
    12  C    0.000000   0.000000
    13  H    0.000000   0.000000
    14  N    0.000041   0.002947
    15  C   -0.037904   0.007731
    16  H    0.000000   0.000000
    17  H    0.000000  -0.000001
    18  H   -0.000001   0.000004
    19  H    0.000000   0.000000
    20  C    0.007794  -0.033416
    21  C    0.431980  -0.033392
    22  H   -0.007646  -0.000109
    23  C   -0.044666   0.429897
    24  H   -0.000106  -0.006406
    25  H    0.516224  -0.006370
    26  H   -0.006370   0.500239
 Mulliken charges:
               1
     1  C    0.160347
     2  N   -0.232716
     3  C   -0.040269
     4  C    0.072356
     5  C    0.138884
     6  C    0.159556
     7  C    0.110383
     8  H    0.100526
     9  C    0.062390
    10  H    0.140248
    11  H    0.147070
    12  C   -0.000844
    13  H    0.137479
    14  N   -0.228278
    15  C   -0.041593
    16  H    0.130591
    17  H    0.139174
    18  H    0.148725
    19  H    0.139207
    20  C    0.140477
    21  C    0.112389
    22  H    0.100839
    23  C   -0.003815
    24  H    0.137340
    25  H    0.130553
    26  H    0.138980
 Sum of Mulliken charges =   2.00000
 Mulliken charges with hydrogens summed into heavy atoms:
               1
     1  C    0.160347
     2  N   -0.232716
     3  C    0.060257
     4  C    0.359674
     5  C    0.276363
     6  C    0.159556
     7  C    0.240974
     9  C    0.350288
    12  C    0.138364
    14  N   -0.228278
    15  C    0.059246
    20  C    0.277817
    21  C    0.242942
    23  C    0.135166
 Electronic spatial extent (au):  <R**2>=           4695.3859
 Charge=              2.0000 electrons
 Dipole moment (field-independent basis, Debye):
    X=             -9.3578    Y=             -2.3372    Z=             22.3615  Tot=             24.3530
 Quadrupole moment (field-independent basis, Debye-Ang):
   XX=              6.5228   YY=            -37.8753   ZZ=            -25.5407
   XY=             -0.4522   XZ=            -21.6627   YZ=             -9.0408
 Traceless Quadrupole moment (field-independent basis, Debye-Ang):
   XX=             25.4872   YY=            -18.9109   ZZ=             -6.5764
   XY=             -0.4522   XZ=            -21.6627   YZ=             -9.0408
 Octapole moment (field-independent basis, Debye-Ang**2):
  XXX=              3.0391  YYY=              8.2177  ZZZ=           -412.9528  XYY=             32.8111
  XXY=             22.3563  XXZ=              9.1411  XZZ=             25.2975  YZZ=            -29.5097
  YYZ=            -85.3653  XYZ=             -3.6141
 Hexadecapole moment (field-independent basis, Debye-Ang**3):
 XXXX=          -1274.9732 YYYY=           -649.6078 ZZZZ=          -2275.5861 XXXY=            -46.6597
 XXXZ=              7.4964 YYYX=             21.0134 YYYZ=             36.0470 ZZZX=            400.6754
 ZZZY=            -52.5231 XXYY=           -370.4538 XXZZ=           -502.5590 YYZZ=           -354.0200
 XXYZ=             55.1679 YYXZ=             71.7007 ZZXY=              7.8678
 N-N= 8.545931440053D+02 E-N=-3.003137178746D+03  KE= 5.666332061279D+02
   1 Symmetry operations used in ECPInt.
 ECPInt:  NShTT=    7260 NPrTT=   26324 LenC2=    7022 LenP2D=   19079.
 LDataN:  DoStor=T MaxTD1= 5 Len=  102
 Calling FoFJK, ICntrl=      2127 FMM=F ISym2X=0 I1Cent= 0 IOpClX= 0 NMat=1 NMatS=1 NMatT=0.
 -------------------------------------------------------------------
 Center     Atomic                   Forces (Hartrees/Bohr)
 Number     Number              X              Y              Z
 -------------------------------------------------------------------
      1        6          -0.014383198   -0.000687691    0.003891958
      2        7          -0.004471250    0.007597818   -0.000576359
      3        6           0.005652126   -0.003321026   -0.001029743
      4        6           0.001749443   -0.002929092   -0.003184118
      5        6           0.006428226   -0.005243348    0.001345715
      6        6           0.013170848   -0.006091614    0.001591858
      7        6          -0.005958142   -0.003756327    0.002289417
      8        1          -0.000069055    0.000846592    0.000324414
      9        6          -0.001863054   -0.003081359    0.000587669
     10        1           0.000213241   -0.000515994   -0.000288085
     11        1           0.000025386    0.000186316   -0.000743616
     12        6           0.001120833    0.008757757   -0.001350839
     13        1          -0.000394145   -0.000355511   -0.000414251
     14        7           0.001236572    0.008635345    0.001247311
     15        6          -0.006937775   -0.000272432   -0.004803283
     16        1          -0.000380963    0.000476039   -0.000572771
     17        1           0.000026613   -0.000348957    0.000525694
     18        1           0.000513083    0.000357363   -0.000023606
     19        1          -0.000764542    0.000094553   -0.000093357
     20        6          -0.005143821   -0.003723284    0.001871431
     21        6           0.006800137   -0.005839449    0.000748464
     22        1           0.000131475    0.000752391    0.000265119
     23        6           0.000822057    0.008312889   -0.001821947
     24        1           0.000418792   -0.000612749    0.000488378
     25        1           0.000913770    0.000521077   -0.000248676
     26        1           0.001143344    0.000240694   -0.000026778
 -------------------------------------------------------------------
 Cartesian Forces:  Max     0.014383198 RMS     0.003844964

 GradGradGradGradGradGradGradGradGradGradGradGradGradGradGradGradGradGrad
 Berny optimization.
 FormGI is forming the generalized inverse of G from B-inverse, IUseBI=4.
 Internal  Forces:  Max     0.010211736 RMS     0.001682162
 Search for a local minimum.
 Step number   1 out of a maximum of  156
 All quantities printed in internal units (Hartrees-Bohrs-Radians)
 Mixed Optimization -- RFO/linear search
 Second derivative matrix not updated -- first step.
 ITU=  0
     Eigenvalues ---    0.00994   0.01327   0.01502   0.01700   0.01772
     Eigenvalues ---    0.01818   0.01984   0.02157   0.02170   0.02181
     Eigenvalues ---    0.02188   0.02203   0.02223   0.02258   0.02258
     Eigenvalues ---    0.02302   0.02318   0.02356   0.02369   0.03971
     Eigenvalues ---    0.04696   0.05680   0.06161   0.08797   0.09236
     Eigenvalues ---    0.09271   0.11607   0.15982   0.15993   0.15996
     Eigenvalues ---    0.15999   0.15999   0.15999   0.16000   0.16000
     Eigenvalues ---    0.19840   0.21934   0.21997   0.21999   0.22593
     Eigenvalues ---    0.22643   0.24373   0.24526   0.24964   0.30372
     Eigenvalues ---    0.33485   0.33597   0.33919   0.34060   0.34071
     Eigenvalues ---    0.34093   0.34636   0.34675   0.34705   0.34711
     Eigenvalues ---    0.34792   0.34841   0.35064   0.35094   0.35613
     Eigenvalues ---    0.42223   0.42658   0.43495   0.43797   0.46558
     Eigenvalues ---    0.46823   0.47643   0.48640   0.49034   0.49504
     Eigenvalues ---    0.52797   0.53547
 RFO step:  Lambda=-3.03750913D-03 EMin= 9.93969018D-03
 Linear search not attempted -- first point.
 Iteration  1 RMS(Cart)=  0.05858643 RMS(Int)=  0.00120862
 Iteration  2 RMS(Cart)=  0.00197649 RMS(Int)=  0.00024545
 Iteration  3 RMS(Cart)=  0.00000138 RMS(Int)=  0.00024545
 Iteration  4 RMS(Cart)=  0.00000000 RMS(Int)=  0.00024545
 Variable       Old X    -DE/DX   Delta X   Delta X   Delta X     New X
                                 (Linear)    (Quad)   (Total)
    R1        2.58475  -0.00391   0.00000  -0.00894  -0.00902   2.57573
    R2        2.63761  -0.00254   0.00000  -0.00597  -0.00602   2.63159
    R3        2.77922   0.01021   0.00000   0.02907   0.02882   2.80804
    R4        2.77680   0.00453   0.00000   0.01126   0.01152   2.78832
    R5        2.56120  -0.00350   0.00000  -0.00693  -0.00698   2.55422
    R6        2.62611   0.00344   0.00000   0.00774   0.00778   2.63389
    R7        2.05523   0.00069   0.00000   0.00196   0.00196   2.05718
    R8        2.84518   0.00214   0.00000   0.00670   0.00667   2.85186
    R9        2.07210   0.00010   0.00000   0.00028   0.00028   2.07238
   R10        2.08015   0.00067   0.00000   0.00199   0.00199   2.08214
   R11        2.59929   0.00546   0.00000   0.01134   0.01138   2.61067
   R12        2.06206   0.00050   0.00000   0.00143   0.00143   2.06349
   R13        2.58970  -0.00533   0.00000  -0.01051  -0.01081   2.57888
   R14        2.62930   0.00002   0.00000  -0.00024  -0.00036   2.62894
   R15        2.64217  -0.00496   0.00000  -0.00964  -0.00955   2.63262
   R16        2.06270   0.00059   0.00000   0.00169   0.00169   2.06439
   R17        2.77654   0.00309   0.00000   0.00869   0.00884   2.78537
   R18        2.07173   0.00022   0.00000   0.00064   0.00064   2.07237
   R19        2.08207  -0.00006   0.00000  -0.00017  -0.00017   2.08191
   R20        2.06014   0.00076   0.00000   0.00218   0.00218   2.06232
   R21        2.55324  -0.00083   0.00000  -0.00203  -0.00206   2.55119
   R22        2.62450   0.00586   0.00000   0.01286   0.01289   2.63739
   R23        2.05572   0.00059   0.00000   0.00167   0.00167   2.05738
   R24        2.60200   0.00542   0.00000   0.01108   0.01120   2.61320
   R25        2.06147   0.00078   0.00000   0.00223   0.00223   2.06370
   R26        2.64118  -0.00524   0.00000  -0.01041  -0.01026   2.63092
   R27        2.06157   0.00098   0.00000   0.00281   0.00281   2.06438
   R28        2.05934   0.00109   0.00000   0.00311   0.00311   2.06245
    A1        2.06302   0.00109   0.00000   0.00346   0.00352   2.06654
    A2        2.08571  -0.00004   0.00000  -0.00439  -0.00563   2.08008
    A3        2.13441  -0.00103   0.00000   0.00129   0.00177   2.13618
    A4        2.09797  -0.00096   0.00000  -0.01081  -0.01132   2.08666
    A5        2.12123   0.00070   0.00000   0.00309   0.00317   2.12440
    A6        2.06243   0.00025   0.00000   0.00755   0.00797   2.07040
    A7        2.10666  -0.00018   0.00000  -0.00204  -0.00218   2.10448
    A8        2.09504   0.00061   0.00000   0.00417   0.00423   2.09926
    A9        2.08148  -0.00043   0.00000  -0.00217  -0.00211   2.07937
   A10        1.93540  -0.00005   0.00000  -0.01036  -0.01096   1.92444
   A11        1.89395  -0.00020   0.00000  -0.00042  -0.00040   1.89355
   A12        1.88840   0.00032   0.00000   0.00634   0.00665   1.89505
   A13        1.90758  -0.00046   0.00000  -0.00392  -0.00361   1.90397
   A14        1.94782   0.00046   0.00000   0.00811   0.00808   1.95591
   A15        1.88935  -0.00007   0.00000   0.00038   0.00030   1.88965
   A16        2.12251  -0.00062   0.00000  -0.00411  -0.00425   2.11825
   A17        2.02545   0.00050   0.00000   0.00328   0.00331   2.02876
   A18        2.13517   0.00013   0.00000   0.00097   0.00100   2.13617
   A19        2.07927   0.00016   0.00000  -0.00180  -0.00290   2.07637
   A20        2.14056  -0.00097   0.00000  -0.00033   0.00050   2.14106
   A21        2.06331   0.00082   0.00000   0.00235   0.00239   2.06569
   A22        2.08626  -0.00077   0.00000  -0.00112  -0.00126   2.08500
   A23        2.09224   0.00052   0.00000   0.00177   0.00161   2.09385
   A24        2.10431   0.00027   0.00000   0.00018   0.00002   2.10433
   A25        1.93359  -0.00031   0.00000  -0.00889  -0.00951   1.92409
   A26        1.90630   0.00010   0.00000   0.00098   0.00136   1.90767
   A27        1.94806   0.00051   0.00000   0.00761   0.00752   1.95558
   A28        1.89988  -0.00030   0.00000  -0.00130  -0.00122   1.89866
   A29        1.88455   0.00021   0.00000   0.00267   0.00299   1.88754
   A30        1.89036  -0.00023   0.00000  -0.00109  -0.00119   1.88917
   A31        2.06641  -0.00020   0.00000   0.00121   0.00122   2.06763
   A32        2.08872   0.00020   0.00000  -0.00002  -0.00003   2.08869
   A33        2.12805   0.00000   0.00000  -0.00119  -0.00120   2.12685
   A34        2.07339   0.00028   0.00000   0.00057  -0.00057   2.07283
   A35        2.12236   0.00079   0.00000   0.00423   0.00380   2.12616
   A36        2.07790  -0.00095   0.00000   0.00260   0.00272   2.08062
   A37        2.10679  -0.00058   0.00000  -0.00238  -0.00284   2.10394
   A38        2.09663   0.00069   0.00000   0.00414   0.00421   2.10083
   A39        2.07875  -0.00009   0.00000  -0.00059  -0.00053   2.07822
   A40        2.11856   0.00009   0.00000  -0.00097  -0.00120   2.11736
   A41        2.02884   0.00010   0.00000   0.00152   0.00153   2.03037
   A42        2.13555  -0.00017   0.00000  -0.00010  -0.00009   2.13546
   A43        2.08481  -0.00035   0.00000   0.00092   0.00085   2.08566
   A44        2.09129   0.00061   0.00000   0.00224   0.00227   2.09356
   A45        2.10702  -0.00026   0.00000  -0.00311  -0.00308   2.10394
   A46        2.06864  -0.00070   0.00000  -0.00133  -0.00134   2.06731
   A47        2.08480   0.00078   0.00000   0.00334   0.00329   2.08809
   A48        2.12967  -0.00007   0.00000  -0.00184  -0.00189   2.12779
    D1        3.09638  -0.00038   0.00000  -0.00653  -0.00665   3.08972
    D2        0.01565  -0.00016   0.00000  -0.00328  -0.00344   0.01221
    D3       -0.05516   0.00054   0.00000   0.03244   0.03222  -0.02294
    D4       -3.13588   0.00076   0.00000   0.03569   0.03544  -3.10045
    D5       -0.02301   0.00046   0.00000   0.01556   0.01566  -0.00734
    D6        3.11326   0.00019   0.00000   0.00710   0.00715   3.12041
    D7        3.12882  -0.00050   0.00000  -0.02453  -0.02449   3.10433
    D8       -0.01809  -0.00076   0.00000  -0.03299  -0.03301  -0.05110
    D9       -0.16477  -0.00205   0.00000  -0.09965  -0.09973  -0.26450
   D10        2.98792  -0.00254   0.00000  -0.12312  -0.12325   2.86467
   D11        2.96645  -0.00107   0.00000  -0.05901  -0.05922   2.90723
   D12       -0.16404  -0.00156   0.00000  -0.08248  -0.08274  -0.24678
   D13        0.59178   0.00091   0.00000   0.03724   0.03690   0.62868
   D14        2.68713   0.00019   0.00000   0.02585   0.02565   2.71279
   D15       -1.54978   0.00017   0.00000   0.02953   0.02944  -1.52034
   D16       -2.60865   0.00072   0.00000   0.03397   0.03364  -2.57501
   D17       -0.51330  -0.00001   0.00000   0.02258   0.02240  -0.49091
   D18        1.53297  -0.00003   0.00000   0.02626   0.02618   1.55916
   D19       -0.00938   0.00010   0.00000   0.00193   0.00198  -0.00740
   D20       -3.13889  -0.00030   0.00000  -0.01158  -0.01158   3.13272
   D21       -3.09131   0.00036   0.00000   0.00574   0.00582  -3.08549
   D22        0.06237  -0.00005   0.00000  -0.00778  -0.00774   0.05463
   D23        0.02394  -0.00066   0.00000  -0.02614  -0.02615  -0.00221
   D24        3.13628   0.00012   0.00000   0.00592   0.00591  -3.14099
   D25       -3.11237  -0.00040   0.00000  -0.01777  -0.01775  -3.13012
   D26       -0.00003   0.00038   0.00000   0.01429   0.01431   0.01427
   D27       -0.90277  -0.00128   0.00000  -0.04723  -0.04723  -0.95000
   D28       -2.99538  -0.00078   0.00000  -0.04073  -0.04073  -3.03611
   D29        1.19798  -0.00088   0.00000  -0.04479  -0.04490   1.15308
   D30       -2.98998  -0.00071   0.00000  -0.03779  -0.03779  -3.02777
   D31        1.20060  -0.00021   0.00000  -0.03129  -0.03128   1.16931
   D32       -0.88922  -0.00031   0.00000  -0.03534  -0.03546  -0.92469
   D33        1.20395  -0.00060   0.00000  -0.04079  -0.04088   1.16308
   D34       -0.88865  -0.00011   0.00000  -0.03429  -0.03438  -0.92303
   D35       -2.97847  -0.00020   0.00000  -0.03834  -0.03855  -3.01703
   D36        0.00973  -0.00028   0.00000  -0.01225  -0.01225  -0.00252
   D37       -3.13187  -0.00020   0.00000  -0.00749  -0.00751  -3.13939
   D38        3.13847   0.00016   0.00000   0.00214   0.00217   3.14064
   D39       -0.00313   0.00023   0.00000   0.00689   0.00690   0.00377
   D40       -0.20379   0.00173   0.00000   0.08932   0.08916  -0.11464
   D41        3.08718   0.00082   0.00000   0.03156   0.03137   3.11855
   D42        2.92719   0.00219   0.00000   0.11173   0.11165   3.03884
   D43       -0.06502   0.00127   0.00000   0.05397   0.05386  -0.01116
   D44       -3.11404  -0.00043   0.00000  -0.01959  -0.01937  -3.13342
   D45       -0.02154   0.00018   0.00000   0.00825   0.00840  -0.01314
   D46        0.03856  -0.00091   0.00000  -0.04283  -0.04273  -0.00417
   D47        3.13106  -0.00030   0.00000  -0.01499  -0.01496   3.11610
   D48       -0.01689   0.00057   0.00000   0.02404   0.02400   0.00711
   D49        3.12471   0.00049   0.00000   0.01918   0.01915  -3.13932
   D50       -3.12903  -0.00022   0.00000  -0.00827  -0.00828  -3.13731
   D51        0.01257  -0.00030   0.00000  -0.01313  -0.01312  -0.00055
   D52        0.73955  -0.00023   0.00000  -0.01876  -0.01916   0.72039
   D53       -2.54756   0.00081   0.00000   0.03765   0.03720  -2.51036
   D54        2.83600  -0.00048   0.00000  -0.02385  -0.02404   2.81195
   D55       -0.45112   0.00056   0.00000   0.03256   0.03232  -0.41880
   D56       -1.39861  -0.00081   0.00000  -0.02438  -0.02447  -1.42308
   D57        1.59746   0.00023   0.00000   0.03203   0.03189   1.62935
   D58        0.03962  -0.00081   0.00000  -0.03029  -0.03016   0.00946
   D59       -3.12510  -0.00029   0.00000  -0.00857  -0.00852  -3.13362
   D60       -2.95221  -0.00183   0.00000  -0.08802  -0.08793  -3.04014
   D61        0.16625  -0.00131   0.00000  -0.06630  -0.06629   0.09996
   D62        0.01252   0.00016   0.00000   0.00849   0.00848   0.02100
   D63       -3.14140   0.00030   0.00000   0.01287   0.01279  -3.12861
   D64       -3.08049  -0.00047   0.00000  -0.01919  -0.01907  -3.09955
   D65        0.04878  -0.00033   0.00000  -0.01482  -0.01476   0.03402
   D66        0.01347   0.00002   0.00000  -0.00567  -0.00575   0.00772
   D67       -3.14047   0.00027   0.00000   0.00863   0.00854  -3.13193
   D68       -3.10356  -0.00054   0.00000  -0.02876  -0.02873  -3.13228
   D69        0.02568  -0.00028   0.00000  -0.01446  -0.01444   0.01125
   D70       -0.03857   0.00040   0.00000   0.01620   0.01608  -0.02250
   D71        3.11571   0.00013   0.00000   0.00147   0.00140   3.11711
   D72        3.11546   0.00025   0.00000   0.01174   0.01170   3.12716
   D73       -0.01345  -0.00002   0.00000  -0.00299  -0.00297  -0.01642
         Item               Value     Threshold  Converged?
 Maximum Force            0.010212     0.000450     NO 
 RMS     Force            0.001682     0.000300     NO 
 Maximum Displacement     0.265855     0.001800     NO 
 RMS     Displacement     0.058777     0.001200     NO 
 Predicted change in Energy=-1.679838D-03
 GradGradGradGradGradGradGradGradGradGradGradGradGradGradGradGradGradGrad

                          Input orientation:                          
 ---------------------------------------------------------------------
 Center     Atomic      Atomic             Coordinates (Angstroms)
 Number     Number       Type             X           Y           Z
 ---------------------------------------------------------------------
      1          6           0       -1.674512    0.370198    2.308417
      2          7           0       -2.427528   -0.764572    2.252934
      3          6           0       -2.329411    1.598574    2.346862
      4          6           0       -1.760415   -2.076216    2.144804
      5          6           0       -3.778059   -0.720375    2.220755
      6          6           0       -0.192921    0.258229    2.288252
      7          6           0       -3.721547    1.661017    2.320016
      8          1           0       -1.758471    2.523208    2.411368
      9          6           0       -0.479533   -2.078474    2.942823
     10          1           0       -2.434052   -2.843165    2.545622
     11          1           0       -1.584511   -2.293788    1.079096
     12          6           0       -4.459156    0.481180    2.251447
     13          1           0       -4.291468   -1.682665    2.168122
     14          7           0        0.381448   -0.956169    2.528466
     15          6           0        0.638471    1.340772    2.019455
     16          1           0       -4.225008    2.630047    2.350057
     17          1           0        0.056296   -3.018753    2.765610
     18          1           0       -0.666176   -1.986528    4.024695
     19          1           0       -5.550193    0.484556    2.226258
     20          6           0        1.720043   -1.128902    2.498378
     21          6           0        2.025085    1.183172    2.002377
     22          1           0        0.214490    2.319196    1.799822
     23          6           0        2.574925   -0.075055    2.232203
     24          1           0        2.082578   -2.139850    2.696258
     25          1           0        2.669257    2.042451    1.802193
     26          1           0        3.652294   -0.247485    2.205690
 ---------------------------------------------------------------------
                    Distance matrix (angstroms):
                    1          2          3          4          5
     1  C    0.000000
     2  N    1.363016   0.000000
     3  C    1.392579   2.367046   0.000000
     4  C    2.453383   1.475514   3.724065   0.000000
     5  C    2.371064   1.351638   2.737153   2.432069   0.000000
     6  C    1.485953   2.457812   2.522806   2.815537   3.716912
     7  C    2.420062   2.749994   1.393795   4.224174   2.384129
     8  H    2.157105   3.358904   1.088615   4.607142   3.825690
     9  C    2.797578   2.448871   4.159074   1.509138   3.639518
    10  H    3.310418   2.099108   4.447414   1.096655   2.533403
    11  H    2.935328   2.104061   4.160839   1.101823   2.930984
    12  C    2.787438   2.383152   2.406967   3.719523   1.381510
    13  H    3.329022   2.079510   3.827289   2.561573   1.091953
    14  N    2.456551   2.828952   3.729403   2.447300   4.177533
    15  C    2.524956   3.726571   2.996995   4.176861   4.877969
    16  H    3.407886   3.842370   2.158064   5.316508   3.382574
    17  H    3.832715   3.393162   5.214082   2.138741   4.503519
    18  H    3.084884   2.781128   4.293533   2.177015   3.813287
    19  H    3.878239   3.363343   3.410135   4.574561   2.142976
    20  C    3.715695   4.170770   4.884686   3.624363   5.520245
    21  C    3.800211   4.866441   4.387808   4.997390   6.111273
    22  H    2.761447   4.085975   2.699996   4.831035   5.035536
    23  C    4.273380   5.049792   5.183309   4.775716   6.385686
    24  H    4.535029   4.735924   5.793404   3.882879   6.048808
    25  H    4.681989   5.836074   5.047809   6.058283   7.026826
    26  H    5.363483   6.101954   6.261681   5.713614   7.445401
                    6          7          8          9         10
     6  C    0.000000
     7  C    3.797371   0.000000
     8  H    2.756127   2.146017   0.000000
     9  C    2.443520   4.988220   4.805581   0.000000
    10  H    3.835042   4.690010   5.410397   2.136040   0.000000
    11  H    3.148233   4.663398   5.000866   2.177341   1.781638
    12  C    4.272216   1.393121   3.389566   4.781970   3.903697
    13  H    4.536473   3.395304   4.915751   3.909946   2.222445
    14  N    1.364685   4.871107   4.086445   1.473957   3.389408
    15  C    1.391173   4.382083   2.701311   3.713998   5.217525
    16  H    4.678362   1.092426   2.469612   6.045671   5.762102
    17  H    3.320932   6.030829   5.842277   1.096650   2.506204
    18  H    2.877176   5.054286   4.912602   1.101697   2.459038
    19  H    5.362410   2.176419   4.309006   5.726621   4.570126
    20  C    2.372281   6.117709   5.044357   2.436669   4.494156
    21  C    2.420081   5.775206   4.034633   4.218517   6.032446
    22  H    2.156880   4.024448   2.075616   4.596479   5.849868
    23  C    2.788403   6.532015   5.055828   3.721342   5.731537
    24  H    3.330938   6.948094   6.048052   2.574679   4.573543
    25  H    3.407604   6.423084   4.495220   5.310173   7.103921
    26  H    3.879206   7.617675   6.082386   4.579070   6.625460
                   11         12         13         14         15
    11  H    0.000000
    12  C    4.163945   0.000000
    13  H    2.981118   2.171931   0.000000
    14  N    2.784760   5.057090   4.742762   0.000000
    15  C    4.363020   5.174797   5.785116   2.366663   0.000000
    16  H    5.729897   2.163835   4.317059   5.840567   5.042317
    17  H    2.462144   5.736131   4.587502   2.101479   4.461068
    18  H    3.100694   4.860112   4.084353   2.097107   4.098051
    19  H    4.976124   1.091333   2.506913   6.111578   6.251035
    20  C    3.780397   6.390293   6.045990   1.350029   2.738331
    21  C    5.096163   6.526884   6.938251   2.748653   1.395646
    22  H    5.003545   5.042344   6.037730   3.359585   1.088720
    23  C    4.853179   7.056066   7.052367   2.382326   2.408253
    24  H    4.010792   7.061299   6.412208   2.079206   3.828608
    25  H    6.117220   7.311202   7.903296   3.840998   2.159549
    26  H    5.734169   8.144242   8.072454   3.362269   3.411799
                   16         17         18         19         20
    16  H    0.000000
    17  H    7.100084   0.000000
    18  H    6.064855   1.781221   0.000000
    19  H    2.524792   6.633008   5.761446   0.000000
    20  C    7.035292   2.531996   2.959597   7.452089   0.000000
    21  C    6.424795   4.702641   4.623814   7.610718   2.384273
    22  H    4.484254   5.426921   4.925941   6.064596   3.826755
    23  C    7.319192   3.910675   4.167913   8.144369   1.382847
    24  H    7.915644   2.209774   3.056780   8.085024   1.092064
    25  H    6.940917   5.776809   5.683072   8.376529   3.382774
    26  H    8.387665   4.574346   4.998224   9.231581   2.143865
                   21         22         23         24         25
    21  C    0.000000
    22  H    2.147052   0.000000
    23  C    1.392221   3.389844   0.000000
    24  H    3.395181   4.916954   2.172817   0.000000
    25  H    1.092425   2.470319   2.162784   4.316849   0.000000
    26  H    2.176218   4.309417   1.091402   2.507132   2.524475
                   26
    26  H    0.000000
 Symmetry turned off by external request.
 Stoichiometry    C12H12N2(2+)
 Framework group  C1[X(C12H12N2)]
 Deg. of freedom    72
 Full point group                 C1      NOp   1
 Rotational constants (GHZ):      1.5817196      0.5512418      0.4163474
 Standard basis: def2SVP (5D, 7F)
   256 basis functions,   434 primitive gaussians,   270 cartesian basis functions
    48 alpha electrons       48 beta electrons
       nuclear repulsion energy       854.0040087716 Hartrees.
 NAtoms=   26 NActive=   26 NUniq=   26 SFac= 1.00D+00 NAtFMM=   60 NAOKFM=F Big=F
 Integral buffers will be    131072 words long.
 Raffenetti 2 integral format.
 Two-electron integral symmetry is turned off.
 Nuclear repulsion after empirical dispersion term =      853.9867834898 Hartrees.
 One-electron integrals computed using PRISM.
   1 Symmetry operations used in ECPInt.
 ECPInt:  NShTT=    7260 NPrTT=   26324 LenC2=    7022 LenP2D=   19079.
 LDataN:  DoStor=T MaxTD1= 4 Len=   56
 NBasis=   256 RedAO= T EigKep=  4.48D-04  NBF=   256
 NBsUse=   256 1.00D-06 EigRej= -1.00D+00 NBFU=   256
 Initial guess from the checkpoint file:  "/home/scratch/vidal/Gau-18354.chk"
 B after Tr=    -0.009038   -0.004852    0.011020
         Rot=    0.999999    0.000616   -0.000943    0.000099 Ang=   0.13 deg.
 ExpMin= 1.22D-01 ExpMax= 1.71D+03 ExpMxC= 2.58D+02 IAcc=2 IRadAn=         4 AccDes= 0.00D+00
 Harris functional with IExCor= 4639 and IRadAn=       4 diagonalized for initial guess.
 HarFok:  IExCor= 4639 AccDes= 0.00D+00 IRadAn=         4 IDoV= 1 UseB2=F ITyADJ=14
 ICtDFT=  3500011 ScaDFX=  1.000000  1.000000  1.000000  1.000000
 FoFCou: FMM=F IPFlag=           0 FMFlag=      100000 FMFlg1=           0
         NFxFlg=           0 DoJE=T BraDBF=F KetDBF=T FulRan=T
         wScrn=  0.000000 ICntrl=     500 IOpCl=  0 I1Cent=   200000004 NGrid=           0
         NMat0=    1 NMatS0=      1 NMatT0=    0 NMatD0=    1 NMtDS0=    0 NMtDT0=    0
 Symmetry not used in FoFCou.
 Keep R1 ints in memory in canonical form, NReq=1092374074.
 Requested convergence on RMS density matrix=1.00D-08 within 128 cycles.
 Requested convergence on MAX density matrix=1.00D-06.
 Requested convergence on             energy=1.00D-06.
 No special actions if energy rises.
 Integral accuracy reduced to 1.0D-05 until final iterations.
 Initial convergence to 1.0D-05 achieved.  Increase integral accuracy.
 SCF Done:  E(RwB97XD) =  -572.826736634     A.U. after   13 cycles
            NFock= 13  Conv=0.92D-08     -V/T= 2.0110
   1 Symmetry operations used in ECPInt.
 ECPInt:  NShTT=    7260 NPrTT=   26324 LenC2=    7022 LenP2D=   19079.
 LDataN:  DoStor=T MaxTD1= 5 Len=  102
 Calling FoFJK, ICntrl=      2127 FMM=F ISym2X=0 I1Cent= 0 IOpClX= 0 NMat=1 NMatS=1 NMatT=0.
 -------------------------------------------------------------------
 Center     Atomic                   Forces (Hartrees/Bohr)
 Number     Number              X              Y              Z
 -------------------------------------------------------------------
      1        6          -0.002850816    0.001707927   -0.000339696
      2        7          -0.002615243    0.000560499   -0.001128793
      3        6           0.003289221   -0.000855322    0.001195833
      4        6           0.000975074   -0.000927138    0.000399749
      5        6           0.002054753   -0.001630499    0.000391425
      6        6           0.003627417   -0.001029551   -0.001254581
      7        6          -0.001911364   -0.001118178   -0.000600480
      8        1           0.000510544    0.000238273    0.000547949
      9        6          -0.000810298   -0.001271515   -0.000635041
     10        1          -0.000103811   -0.000262885   -0.000455351
     11        1           0.000313568    0.000881216    0.000122387
     12        6           0.000188339    0.002052343    0.000299147
     13        1          -0.000202981    0.000143700   -0.000008779
     14        7           0.001616220    0.002070000    0.002132224
     15        6          -0.002555706    0.000053828   -0.000740340
     16        1           0.000134003    0.000013784    0.000191226
     17        1           0.000039238    0.000001098    0.000349038
     18        1          -0.000368313    0.000330180   -0.000207897
     19        1           0.000014011   -0.000226843    0.000020660
     20        6          -0.001464592   -0.001342894   -0.000272745
     21        6           0.000917316   -0.001166434    0.000227330
     22        1          -0.000453174    0.000243737   -0.000147601
     23        6          -0.000221378    0.001347902   -0.000435969
     24        1           0.000155820    0.000249204    0.000412269
     25        1          -0.000208473   -0.000003942   -0.000501136
     26        1          -0.000069375   -0.000058491    0.000439171
 -------------------------------------------------------------------
 Cartesian Forces:  Max     0.003627417 RMS     0.001131788

 GradGradGradGradGradGradGradGradGradGradGradGradGradGradGradGradGradGrad
 Berny optimization.
 Using GEDIIS/GDIIS optimizer.
 FormGI is forming the generalized inverse of G from B-inverse, IUseBI=4.
 Internal  Forces:  Max     0.002223812 RMS     0.000603756
 Search for a local minimum.
 Step number   2 out of a maximum of  156
 All quantities printed in internal units (Hartrees-Bohrs-Radians)
 Mixed Optimization -- En-DIIS/RFO-DIIS
 Update second derivatives using D2CorX and points    1    2
 DE= -2.09D-03 DEPred=-1.68D-03 R= 1.25D+00
 TightC=F SS=  1.41D+00  RLast= 3.35D-01 DXNew= 5.0454D-01 1.0041D+00
 Trust test= 1.25D+00 RLast= 3.35D-01 DXMaxT set to 5.05D-01
 ITU=  1  0
 Use linear search instead of GDIIS.
     Eigenvalues ---    0.00756   0.01192   0.01361   0.01673   0.01710
     Eigenvalues ---    0.01819   0.02076   0.02160   0.02172   0.02185
     Eigenvalues ---    0.02195   0.02217   0.02257   0.02258   0.02265
     Eigenvalues ---    0.02313   0.02352   0.02362   0.02460   0.04009
     Eigenvalues ---    0.04807   0.05680   0.06198   0.08734   0.09170
     Eigenvalues ---    0.09208   0.11531   0.15989   0.15997   0.15999
     Eigenvalues ---    0.16000   0.16000   0.16000   0.16000   0.16131
     Eigenvalues ---    0.19764   0.21945   0.21999   0.22031   0.22553
     Eigenvalues ---    0.22634   0.24448   0.24498   0.24980   0.30196
     Eigenvalues ---    0.33484   0.33602   0.33903   0.34064   0.34074
     Eigenvalues ---    0.34098   0.34639   0.34676   0.34707   0.34721
     Eigenvalues ---    0.34797   0.34851   0.35027   0.35080   0.36835
     Eigenvalues ---    0.42262   0.42318   0.43477   0.43918   0.45868
     Eigenvalues ---    0.46701   0.47642   0.48948   0.49461   0.50392
     Eigenvalues ---    0.52668   0.53824
 RFO step:  Lambda=-1.08930324D-03 EMin= 7.56231388D-03
 Quartic linear search produced a step of  0.57187.
 Iteration  1 RMS(Cart)=  0.08004910 RMS(Int)=  0.00206430
 Iteration  2 RMS(Cart)=  0.00321226 RMS(Int)=  0.00050373
 Iteration  3 RMS(Cart)=  0.00000385 RMS(Int)=  0.00050373
 Iteration  4 RMS(Cart)=  0.00000000 RMS(Int)=  0.00050373
 Variable       Old X    -DE/DX   Delta X   Delta X   Delta X     New X
                                 (Linear)    (Quad)   (Total)
    R1        2.57573  -0.00002  -0.00516   0.00042  -0.00502   2.57071
    R2        2.63159  -0.00222  -0.00344  -0.00643  -0.01003   2.62157
    R3        2.80804   0.00021   0.01648  -0.00580   0.01013   2.81817
    R4        2.78832   0.00099   0.00659   0.00067   0.00776   2.79608
    R5        2.55422  -0.00161  -0.00399  -0.00344  -0.00752   2.54671
    R6        2.63389   0.00129   0.00445   0.00290   0.00743   2.64132
    R7        2.05718   0.00050   0.00112   0.00175   0.00287   2.06005
    R8        2.85186   0.00020   0.00382  -0.00026   0.00364   2.85550
    R9        2.07238   0.00008   0.00016   0.00030   0.00046   2.07284
   R10        2.08214  -0.00024   0.00114  -0.00156  -0.00043   2.08172
   R11        2.61067   0.00131   0.00651   0.00182   0.00848   2.61915
   R12        2.06349  -0.00003   0.00082  -0.00047   0.00035   2.06384
   R13        2.57888  -0.00118  -0.00618  -0.00123  -0.00795   2.57093
   R14        2.62894  -0.00182  -0.00021  -0.00624  -0.00665   2.62228
   R15        2.63262  -0.00066  -0.00546   0.00099  -0.00423   2.62839
   R16        2.06439  -0.00004   0.00097  -0.00058   0.00039   2.06477
   R17        2.78537   0.00101   0.00505   0.00309   0.00841   2.79379
   R18        2.07237  -0.00004   0.00037  -0.00032   0.00005   2.07241
   R19        2.08191  -0.00011  -0.00010  -0.00048  -0.00058   2.08133
   R20        2.06232  -0.00002   0.00125  -0.00057   0.00068   2.06300
   R21        2.55119  -0.00121  -0.00118  -0.00324  -0.00446   2.54673
   R22        2.63739   0.00044   0.00737  -0.00114   0.00626   2.64365
   R23        2.05738   0.00042   0.00095   0.00147   0.00242   2.05980
   R24        2.61320   0.00080   0.00641   0.00028   0.00689   2.62010
   R25        2.06370  -0.00010   0.00127  -0.00097   0.00031   2.06401
   R26        2.63092  -0.00041  -0.00587   0.00176  -0.00387   2.62705
   R27        2.06438  -0.00004   0.00161  -0.00080   0.00081   2.06519
   R28        2.06245  -0.00007   0.00178  -0.00102   0.00076   2.06321
    A1        2.06654   0.00145   0.00201   0.00828   0.01068   2.07722
    A2        2.08008   0.00026  -0.00322  -0.00279  -0.00835   2.07174
    A3        2.13618  -0.00171   0.00101  -0.00459  -0.00207   2.13410
    A4        2.08666  -0.00074  -0.00647  -0.00850  -0.01629   2.07037
    A5        2.12440  -0.00015   0.00181  -0.00062   0.00119   2.12559
    A6        2.07040   0.00091   0.00456   0.01082   0.01632   2.08672
    A7        2.10448  -0.00096  -0.00125  -0.00762  -0.00929   2.09519
    A8        2.09926   0.00016   0.00242   0.00000   0.00260   2.10187
    A9        2.07937   0.00080  -0.00121   0.00755   0.00653   2.08589
   A10        1.92444   0.00001  -0.00627  -0.00732  -0.01461   1.90983
   A11        1.89355  -0.00011  -0.00023   0.00194   0.00192   1.89546
   A12        1.89505  -0.00010   0.00380  -0.00323   0.00098   1.89603
   A13        1.90397  -0.00002  -0.00206   0.00514   0.00365   1.90762
   A14        1.95591   0.00012   0.00462  -0.00020   0.00432   1.96023
   A15        1.88965   0.00009   0.00017   0.00392   0.00393   1.89358
   A16        2.11825  -0.00055  -0.00243  -0.00457  -0.00729   2.11097
   A17        2.02876   0.00053   0.00189   0.00447   0.00647   2.03523
   A18        2.13617   0.00002   0.00057   0.00012   0.00081   2.13698
   A19        2.07637   0.00042  -0.00166  -0.00050  -0.00461   2.07176
   A20        2.14106  -0.00208   0.00029  -0.00872  -0.00662   2.13444
   A21        2.06569   0.00166   0.00136   0.00948   0.01129   2.07698
   A22        2.08500  -0.00005  -0.00072   0.00152   0.00071   2.08571
   A23        2.09385  -0.00011   0.00092  -0.00225  -0.00142   2.09243
   A24        2.10433   0.00017   0.00001   0.00079   0.00071   2.10504
   A25        1.92409  -0.00013  -0.00544  -0.00533  -0.01204   1.91204
   A26        1.90767   0.00032   0.00078   0.00530   0.00677   1.91444
   A27        1.95558  -0.00036   0.00430  -0.00584  -0.00158   1.95400
   A28        1.89866  -0.00027  -0.00070  -0.00041  -0.00078   1.89788
   A29        1.88754   0.00041   0.00171   0.00411   0.00630   1.89384
   A30        1.88917   0.00003  -0.00068   0.00238   0.00151   1.89068
   A31        2.06763   0.00025   0.00070   0.00284   0.00358   2.07121
   A32        2.08869  -0.00036  -0.00002  -0.00377  -0.00385   2.08484
   A33        2.12685   0.00011  -0.00069   0.00089   0.00014   2.12699
   A34        2.07283  -0.00025  -0.00032  -0.00268  -0.00556   2.06727
   A35        2.12616  -0.00016   0.00217  -0.00149   0.00010   2.12626
   A36        2.08062   0.00045   0.00156   0.00670   0.00874   2.08936
   A37        2.10394  -0.00106  -0.00163  -0.00744  -0.00976   2.09418
   A38        2.10083   0.00021   0.00241   0.00000   0.00265   2.10349
   A39        2.07822   0.00085  -0.00030   0.00728   0.00722   2.08543
   A40        2.11736  -0.00066  -0.00069  -0.00512  -0.00615   2.11121
   A41        2.03037   0.00051   0.00088   0.00408   0.00506   2.03543
   A42        2.13546   0.00015  -0.00005   0.00103   0.00108   2.13654
[...]
 06,0.00018595,-0.00021766,0.00017520,0.00002423,-0.00002220,0.00008647
 ,-0.00000943,-0.00000907,0.00001583,-0.00000486,-0.00000744,0.00000704
 ,0.00000959,-0.35989754,0.00244980,-0.00292746,0.00055291,-0.00029620,
 0.00002653,-0.00007008,0.00007148,-0.00000276,0.00020395,0.00000587,-0
 .00003310,0.00060129,0.00036078,0.00009723,0.00000189,0.00000497,-0.00
 001282,-0.00001161,0.00001213,-0.00001093,0.36958650,-0.00042022,-0.00
 149658,-0.00005656,0.00360357,-0.00518132,-0.00135312,-0.00270410,-0.0
 0425582,-0.00135363,0.00073353,0.00072236,0.00008190,0.02695751,0.0050
 6572,0.00046703,0.00006930,0.00010223,0.00010704,-0.02682550,0.0061923
 5,-0.00013178,-0.00110351,0.00027190,0.00009505,0.00006919,-0.00040246
 ,-0.00007286,-0.00000480,0.00001829,0.00002886,0.00007892,-0.00011999,
 0.00000165,0.00085038,-0.05929536,-0.00179477,0.00011837,0.00046508,0.
 00041839,0.00000676,-0.00001103,-0.00000413,-0.00008630,-0.00004341,0.
 00002850,0.00015816,0.00079090,0.00054173,0.00009023,0.00004130,0.0000
 6283,0.00000055,0.00002556,-0.00000815,-0.00157806,0.05700145,-0.00011
 605,-0.00015350,-0.00074222,0.00031659,-0.00099609,0.00808353,-0.00028
 550,-0.00135491,0.00722857,0.00015557,-0.00012742,0.00039997,0.0025806
 8,0.00043605,0.00229188,0.00008582,0.00007095,-0.00097395,-0.00306488,
 -0.00012086,0.00555087,-0.00015286,0.00008620,-0.00049638,0.00000203,-
 0.00020841,-0.00009452,0.00001511,0.00000629,-0.00003998,0.00001241,0.
 00006157,0.00002269,-0.00285665,-0.00179239,-0.04220331,0.00004885,0.0
 0037825,-0.00362950,-0.00017008,0.00010515,0.00005391,0.00015186,-0.00
 006379,0.00002585,0.00004191,0.00059484,-0.00393069,0.00003293,0.00000
 988,0.00000549,0.00001456,-0.00001286,0.00000249,0.00319532,0.00301560
 ,0.02835908,0.00846498,-0.00314861,0.00117094,0.00225283,0.00037977,-0
 .00036239,-0.00477687,0.00160764,0.00016665,-0.00224461,0.00441731,-0.
 00010359,-0.00600014,0.00277455,0.00059823,-0.03648004,0.09128418,-0.0
 2779303,0.00429121,0.00123010,-0.00089483,-0.00019071,-0.00045429,0.00
 059571,-0.02856586,-0.01237009,0.00265662,0.00073837,-0.00049073,0.000
 04054,0.00003940,-0.00048257,-0.00007888,-0.00044379,-0.00513687,-0.00
 054854,-0.00010975,0.00015066,0.00009430,-0.34149581,-0.00599607,0.008
 75386,-0.05348734,-0.03142295,0.01083509,0.00004785,-0.00006535,0.0001
 1983,0.00133613,0.00271718,-0.00028323,0.00073118,0.00268674,-0.001156
 15,0.00019470,-0.00013703,0.00008633,0.70503907,0.00175548,-0.00605317
 ,0.00331933,0.00092169,0.00003344,-0.00030411,-0.00008632,0.00070468,0
 .00005476,-0.00357061,-0.00385573,0.00213830,-0.00151194,0.00099394,0.
 00010567,0.03382006,0.00807294,-0.00032718,0.00128228,0.00000251,-0.00
 056045,-0.00017007,-0.00003776,0.00028062,-0.02762379,0.00535891,-0.00
 114445,-0.00098774,0.00033535,-0.00091034,0.00019582,0.00015552,0.0000
 3458,-0.00015276,-0.00140075,-0.00014176,0.00009086,0.00005378,0.00004
 958,0.06641789,-0.15207019,0.02439252,-0.00825792,-0.00796208,0.000540
 83,0.00010916,-0.00000885,0.00008014,-0.00338105,0.00089093,0.00008559
 ,-0.00176339,-0.00050212,-0.00006187,0.00008565,-0.00001284,0.00004275
 ,-0.00685394,0.77561928,-0.00025345,0.00397661,0.00496933,-0.00009089,
 0.00005627,-0.00028760,-0.00012489,-0.00058714,-0.00009603,0.00006956,
 -0.00031617,-0.00005037,0.00098309,-0.00053765,-0.00045513,-0.00890818
 ,-0.00173410,0.01088434,-0.00073932,0.00012555,-0.00022039,0.00009061,
 -0.00001385,0.00009587,0.00900271,-0.00139057,0.00141737,-0.00005056,-
 0.00006676,0.00023811,-0.00015358,-0.00014364,0.00011352,0.00006483,0.
 00084512,0.00008672,-0.00001671,-0.00001296,-0.00001155,-0.01428019,0.
 02590219,-0.07764854,0.00326105,0.00089394,-0.00707013,-0.00007373,-0.
 00001540,0.00002755,0.00071650,0.00014495,0.00062031,0.00115990,0.0009
 7713,-0.00014149,-0.00003962,-0.00000071,0.00004780,-0.00972714,-0.189
 79400,0.21226340,0.00173678,-0.00187252,0.00019705,-0.00360997,-0.0013
 5907,0.00064075,0.00298123,-0.00000886,-0.00050841,0.00109956,-0.00121
 379,0.00073494,0.00378329,-0.00198835,-0.00042421,-0.03384236,-0.06770
 238,0.02220955,-0.00248017,-0.00060809,0.00064555,0.00007245,0.0004059
 2,-0.00051518,-0.00150352,0.00045647,-0.00042662,-0.00010587,0.0000645
 4,-0.00003340,-0.00006073,0.00013688,-0.00014531,0.00005732,0.00317477
 ,0.00031312,-0.00005524,-0.00008913,-0.00010315,-0.05333455,0.04232717
 ,-0.01230925,-0.35879694,0.05576468,-0.00980103,-0.00001811,0.00007340
 ,-0.00002471,0.00036392,0.00024878,-0.00027602,0.00066188,-0.00038779,
 0.00023736,-0.00015518,0.00008666,-0.00008463,0.07358045,-0.00055694,-
 0.00121751,0.72029458,-0.00228391,-0.00452800,0.00359141,0.00011752,0.
 00117613,-0.00016876,-0.00092757,-0.00064554,-0.00016703,-0.00052364,0
 .00091857,-0.00025610,-0.00195606,0.00059944,-0.00014495,-0.02380113,0
 .04891304,-0.01122938,0.00122148,0.00067554,-0.00033227,-0.00018675,0.
 00020582,0.00044845,-0.00028915,-0.00134151,0.00062673,0.00011963,-0.0
 0008899,0.00002447,-0.00003536,-0.00014296,0.00005621,0.00009468,-0.00
 164359,-0.00006180,-0.00009477,0.00008290,-0.00005670,0.04076045,-0.02
 582302,0.00423586,-0.00687657,-0.13174453,0.02118590,-0.00002223,-0.00
 003253,0.00001929,-0.00027508,0.00001612,0.00012406,-0.00034321,0.0002
 9309,-0.00042850,0.00006803,-0.00001123,0.00006458,-0.03713224,-0.0456
 1388,0.01726418,0.02891719,0.70192701,-0.00015071,0.00366192,0.0058465
 4,0.00192053,0.00005447,0.00026061,-0.00070009,0.00011362,-0.00023655,
 0.00006806,-0.00040907,0.00028303,-0.00047948,0.00055923,-0.00031287,0
 .00959934,-0.01219021,0.00980336,0.00049809,0.00015011,0.00024856,0.00
 000327,0.00004844,-0.00038325,0.00014126,-0.00016692,-0.00136365,-0.00
 005880,0.00002993,-0.00002237,-0.00001844,-0.00000785,-0.00001954,-0.0
 0004403,-0.00043585,-0.00006457,0.00008505,0.00000451,-0.00009985,-0.0
 1203369,0.00505666,-0.00959475,0.00929989,0.01960707,-0.07321319,0.000
 01674,-0.00001119,0.00006938,-0.00000887,-0.00007439,0.00006898,0.0002
 2590,0.00011331,0.00010886,0.00000617,-0.00000651,-0.00003805,0.009870
 93,0.01662853,0.00170068,-0.02413606,-0.18177205,0.21253221,0.00010761
 ,-0.00024614,0.00003161,0.00027650,0.00032122,-0.00000670,-0.00139887,
 -0.00106540,0.00035677,0.00020901,-0.00014356,0.00005141,-0.00009130,0
 .00019755,0.00005716,0.01205674,-0.01619247,0.00522320,0.00004178,0.00
 028758,-0.00005904,-0.00212244,0.00020995,0.00145367,0.00094813,-0.000
 50738,0.00012217,-0.00003682,0.00003737,-0.00000148,-0.00002294,0.0000
 4228,-0.00001055,0.00001105,-0.00013719,-0.00001596,0.00000114,-0.0000
 1154,-0.00000888,-0.00256215,-0.00424310,0.00165728,-0.10519196,0.1042
 1527,-0.03564533,-0.00002618,0.00001180,0.00004701,-0.00022992,-0.0002
 0714,0.00008740,-0.00003544,-0.00005042,0.00000427,-0.00000685,0.00003
 189,0.00000953,-0.00142660,-0.00049984,0.00018154,-0.00640968,0.027148
 47,-0.00881905,0.11059091,0.00111600,-0.00061403,-0.00097720,-0.000573
 84,-0.00025007,-0.00020237,0.00109842,-0.00006356,-0.00041151,0.000137
 56,-0.00008868,0.00002280,0.00056302,-0.00020162,0.00005121,0.00964138
 ,-0.01232619,0.00427879,-0.00049207,0.00012200,-0.00014432,0.00050133,
 0.00100429,-0.00002146,0.00068618,-0.00005583,0.00020364,-0.00002000,0
 .00001451,-0.00000879,-0.00002061,0.00001379,-0.00000964,0.00008537,0.
 00046854,0.00012768,-0.00001541,-0.00002439,0.00002464,-0.00319887,-0.
 00079103,0.00319524,0.10386520,-0.28310094,0.08256826,0.00001377,0.000
 04951,-0.00004022,-0.00013410,-0.00010883,0.00003172,-0.00003918,-0.00
 008264,0.00001762,-0.00001958,0.00002859,0.00002814,-0.00019615,0.0004
 2323,-0.00040819,-0.00163167,0.00418739,0.00065087,-0.11050861,0.28979
 934,0.00076185,-0.00111437,-0.00323447,-0.00085689,-0.00056681,-0.0000
 3054,0.00055494,0.00093051,0.00018908,-0.00010697,0.00014597,-0.000099
 54,0.00044870,-0.00031640,0.00015147,-0.00500273,0.00438817,0.00040047
 ,-0.00050066,-0.00050381,-0.00026710,0.00143580,-0.00035114,0.00021042
 ,-0.00027055,0.00049319,0.00061782,0.00001851,-0.00001547,0.00001249,0
 .00000963,-0.00001679,0.00002556,-0.00011498,0.00042610,0.00007390,-0.
 00001669,-0.00000342,0.00002865,0.00149570,0.00239613,0.00698862,-0.03
 514652,0.08399276,-0.06888769,0.00000817,0.00000023,-0.00002539,0.0001
 4039,0.00011987,-0.00013071,-0.00006487,-0.00008500,0.00000952,-0.0000
 0368,-0.00003331,0.00004460,0.00021562,-0.00037556,-0.00071057,0.00082
 547,-0.00033907,0.00590113,0.03555620,-0.08908432,0.05705391,-0.002086
 48,0.00064818,-0.00005460,0.00045025,0.00022700,0.00004778,0.00065893,
 -0.00042657,0.00014013,-0.00057568,-0.00163010,0.00081971,0.00032879,-
 0.00012474,-0.00004542,0.00362622,-0.01614945,0.00417936,-0.00047435,-
 0.00026392,0.00008415,0.00000156,-0.00005038,-0.00016086,-0.00199575,0
 .00461040,-0.00180847,-0.00033176,0.00016063,-0.00031183,0.00002695,0.
 00005976,-0.00000430,0.00007945,0.00040926,0.00000771,0.00003353,-0.00
 000760,0.00001443,-0.05484193,-0.02094687,0.00847413,-0.00847878,0.038
 88667,-0.01265200,-0.00000294,0.00000497,-0.00000687,0.00011301,-0.000
 13313,-0.00006689,-0.00032964,-0.00054406,0.00033685,-0.00001282,0.000
 00598,-0.00001563,-0.22322509,-0.13933742,0.04621582,-0.17506620,0.114
 03331,-0.03413948,-0.00559130,-0.00051238,0.00060496,0.79583111,-0.002
 69285,0.00116835,-0.00074064,-0.00293750,-0.00078377,0.00024669,0.0035
 4714,-0.00064225,-0.00034140,0.00191903,-0.00196277,0.00086233,0.00464
 936,-0.00222507,-0.00044732,0.00548412,-0.06224987,0.01715855,-0.00321
 560,-0.00096760,0.00067226,0.00017465,0.00033327,-0.00045309,0.0028896
 6,0.00312500,0.00134045,-0.00020128,0.00020484,0.00003586,-0.00011635,
 0.00023753,-0.00009778,0.00020589,0.00400823,0.00041467,0.00003022,-0.
 00012697,-0.00009276,-0.07965192,0.04983363,-0.01168680,0.06624271,0.0
 2336701,-0.00631447,-0.00002865,0.00007003,-0.00006035,0.00013803,0.00
 031495,-0.00028046,-0.00020183,-0.00139954,0.00056053,-0.00017924,0.00
 009797,-0.00007182,-0.07220458,-0.27420354,0.06419542,0.05438081,-0.31
 638177,0.08088162,0.00006141,0.00155477,0.00159599,-0.01607915,0.66083
 558,0.00098633,-0.00067716,-0.00077664,0.00081359,0.00023529,-0.000133
 94,-0.00104653,0.00038212,0.00013456,0.00014782,0.00153776,-0.00060861
 ,-0.00148410,0.00069970,0.00014120,-0.00169571,0.01779384,-0.01233036,
 0.00098862,0.00020059,-0.00021060,-0.00008142,-0.00017501,0.00019781,-
 0.00070942,-0.00019437,0.00740392,0.00034234,-0.00015237,0.00016250,-0
 .00006700,-0.00008150,-0.00007476,-0.00010292,-0.00126399,-0.00013824,
 -0.00003036,0.00004407,0.00004222,0.02660985,-0.01198658,0.01268993,-0
 .02083243,-0.00606828,0.00950717,0.00001518,-0.00001401,-0.00000021,-0
 .00032667,0.00027674,-0.00008896,-0.00108364,-0.00037473,-0.00019462,0
 .00005612,-0.00003636,0.00003116,0.02551070,0.06620489,-0.09040182,-0.
 01510958,0.07853113,-0.09217099,0.00026449,0.00194218,0.00617009,-0.00
 783931,-0.16481836,0.19185138,-0.00009572,0.00137161,-0.00027961,0.000
 40525,0.00000101,0.00018969,-0.00029371,-0.00019925,-0.00004295,-0.000
 15809,-0.00009310,-0.00011909,-0.00014197,-0.00006247,0.00000002,-0.00
 433761,-0.00276872,0.00108249,-0.00002375,0.00012655,0.00005790,0.0000
 0543,0.00000708,-0.00001784,0.00038291,0.00274739,-0.00062005,-0.00001
 220,-0.00002128,-0.00000331,0.00004253,-0.00003071,0.00002496,0.000025
 91,-0.00005934,-0.00002527,-0.00003123,0.00000296,0.00000165,-0.015278
 43,0.03178168,-0.00944987,0.00032776,0.00012834,-0.00009208,-0.0000323
 7,-0.00000275,-0.00000109,-0.00073928,-0.00086732,-0.00014474,-0.00006
 864,-0.00007064,0.00006913,-0.00000569,-0.00000902,-0.00000324,-0.0876
 8940,0.08131107,-0.02391421,-0.00340920,-0.00321066,0.00124602,0.00008
 445,0.00005485,-0.00002653,0.01227230,-0.01775472,0.00532249,0.0975824
 1,-0.00006971,0.00030268,0.00033961,0.00002790,0.00013288,0.00002347,-
 0.00023635,0.00002869,-0.00004709,-0.00021671,0.00000305,0.00014133,-0
 .00009985,0.00007360,-0.00000037,-0.00140257,0.00303823,0.00100164,0.0
 0008424,0.00005519,-0.00005095,0.00000436,-0.00002887,0.00001776,-0.00
 216571,0.00126958,-0.00144194,-0.00005829,0.00001312,-0.00001396,0.000
 04522,0.00003765,0.00002122,-0.00001085,-0.00010280,-0.00000890,0.0000
 0473,0.00001521,-0.00000234,-0.00077279,0.00096924,0.00022186,-0.00131
 689,-0.00028435,-0.00013833,-0.00000407,-0.00001043,0.00001712,-0.0003
 0193,0.00047700,-0.00022797,0.00014610,0.00013503,0.00004854,0.0000118
 0,-0.00000339,0.00000547,0.09057569,-0.30604022,0.07814541,-0.00197643
 ,-0.00156797,0.00262282,0.00002591,-0.00010834,-0.00019080,0.00845495,
 -0.00854979,0.00513673,-0.09149334,0.31054863,0.00007458,0.00050989,0.
 00132304,0.00001343,-0.00012353,-0.00005535,-0.00007863,-0.00005814,-0
 .00013994,-0.00029116,-0.00014296,0.00004442,0.00010952,-0.00007999,0.
 00000013,0.00055518,0.00122853,0.00586727,-0.00011329,0.00003853,-0.00
 010364,-0.00001293,-0.00001144,0.00003017,0.00044281,-0.00049029,-0.00
 326626,-0.00007593,0.00001948,-0.00006067,-0.00004985,0.00004152,-0.00
 000319,0.00003158,0.00011973,0.00002570,0.00000145,-0.00000279,-0.0000
 0828,0.00074838,-0.00100620,0.00268362,0.00020263,-0.00035997,-0.00074
 876,-0.00001290,-0.00000354,0.00003087,0.00023128,-0.00036864,0.000640
 09,0.00058200,0.00003936,-0.00010477,-0.00000793,0.00000165,0.00000137
 ,-0.02700898,0.07813347,-0.06523041,0.00089634,0.00258474,0.00616132,-
 0.00001984,-0.00023981,-0.00070629,-0.00246831,0.00583653,0.00648854,0
 .02656672,-0.08428618,0.05142020,-0.00001378,-0.00109558,0.00027580,-0
 .00041231,0.00006433,0.00008356,0.00003835,-0.00004074,-0.00008351,-0.
 00002420,0.00010086,-0.00000997,0.00003998,-0.00013055,-0.00004577,-0.
 00464490,0.00090977,0.00002920,-0.00002579,0.00002474,0.00001510,-0.00
 002476,0.00000007,0.00000734,-0.00002645,-0.00014050,-0.00005176,0.000
 02088,-0.00002000,0.00000691,-0.00000276,-0.00001916,-0.00000204,0.000
 00267,0.00004233,0.00000874,-0.00003114,0.00000472,-0.00001244,-0.0003
 6360,0.00099117,-0.00029940,-0.01090837,-0.02196859,0.00792517,-0.0000
 1193,-0.00000164,0.00000193,-0.00000296,-0.00003397,0.00000766,0.00004
 345,0.00003913,0.00001367,-0.00000485,0.00000303,0.00000099,-0.0009214
 6,0.00348073,-0.00082855,-0.16361014,-0.13332234,0.04702688,0.00089203
 ,-0.00027978,0.00000844,0.01299110,0.01259955,-0.00428168,0.00060879,0
 .00049781,-0.00015646,0.16586860,0.00007158,0.00043898,-0.00029775,0.0
 0009308,-0.00000580,-0.00004272,0.00012334,-0.00004613,0.00000344,-0.0
 0000906,0.00000816,-0.00001352,0.00007806,-0.00001319,0.00003391,0.002
 26269,0.00107913,0.00199158,-0.00007792,-0.00002176,0.00002828,0.00001
 187,0.00005437,-0.00001841,-0.00013457,-0.00016232,-0.00036963,0.00000
 276,-0.00000999,-0.00000319,-0.00000834,-0.00001233,-0.00000496,0.0000
 0614,0.00007591,-0.00000424,0.00000533,-0.00001258,0.00001429,0.001010
 58,-0.00004723,-0.00031993,0.00647083,0.00936193,-0.00096154,0.0000059
 0,0.00001353,0.00000027,0.00005857,0.00001483,0.00001885,0.00007583,0.
 00006652,0.00000393,-0.00001092,0.00000384,-0.00000632,0.00191103,-0.0
 0286248,0.00367653,-0.13361940,-0.23184218,0.06458067,0.00013018,0.000
 08772,-0.00126669,-0.01583111,-0.01128730,0.00681417,-0.00073760,-0.00
 052321,-0.00019896,0.13844393,0.23519521,-0.00002058,-0.00041364,-0.00
 039919,-0.00026527,0.00011757,-0.00014231,0.00005419,-0.00004363,0.000
 03459,0.00000295,-0.00006467,0.00004999,0.00009199,-0.00008757,0.00003
 961,-0.00048316,0.00197209,0.00704584,-0.00001049,0.00000299,0.0000668
 4,0.00005327,0.00001596,-0.00002967,0.00001697,-0.00011358,-0.00095615
 ,-0.00002931,0.00001095,-0.00001430,0.00000773,0.00000173,0.00001129,0
 .00000119,0.00004437,-0.00001190,-0.00000389,-0.00000792,0.00003163,-0
 .00067577,-0.00029485,-0.00103310,-0.00130803,0.00001620,0.00698445,0.
 00000097,-0.00000249,0.00000404,0.00004440,-0.00007391,0.00001274,0.00
 013102,0.00005067,-0.00002992,0.00000081,0.00000312,-0.00001169,-0.000
 29380,0.00361230,0.00717407,0.04685967,0.06494185,-0.07087064,-0.00012
 067,-0.00142150,-0.00334957,0.00525792,0.00553753,0.00606990,0.0002247
 6,-0.00018385,-0.00097915,-0.04954706,-0.07217773,0.05381658,-0.000155
 12,0.00007402,-0.00000163,-0.00008348,-0.00006066,0.00001245,0.0002124
 2,-0.00005188,-0.00003026,-0.00005440,-0.00013502,0.00002905,0.0001986
 3,-0.00012515,-0.00001674,0.00065459,0.00012804,-0.00005244,-0.0001768
 2,-0.00004062,0.00001775,-0.00000816,0.00002480,-0.00000249,-0.0001960
 8,0.00023200,-0.00008760,-0.00001164,-0.00000137,-0.00002241,-0.000012
 55,-0.00000773,-0.00000793,0.00001707,0.00020172,0.00002144,-0.0000062
 5,-0.00001289,-0.00000553,0.00036272,-0.00217026,0.00085462,0.00072985
 ,0.00080468,-0.00010012,-0.00000347,0.00001197,-0.00000226,-0.00000977
 ,-0.00001300,-0.00000727,-0.00002316,-0.00002092,0.00001423,-0.0000183
 9,0.00000450,-0.00000095,-0.00965870,0.00528303,-0.00132709,-0.0021736
 0,-0.00120011,0.00058056,-0.00006691,-0.00012081,0.00002668,-0.3534004
 8,0.04294111,-0.00636678,0.00057954,0.00024680,-0.00015967,0.00052357,
 -0.00033278,0.00001021,0.36278058,-0.00001837,0.00001909,-0.00031521,-
 0.00003252,-0.00001253,0.00001857,0.00007683,-0.00004337,-0.00001002,-
 0.00011342,-0.00030368,0.00011795,0.00011774,-0.00002280,0.00001944,0.
 00006473,-0.00150180,0.00021162,-0.00007820,-0.00000160,-0.00000077,-0
 .00001826,0.00003019,0.00003439,-0.00054412,0.00079006,-0.00014582,-0.
 00007516,0.00003841,-0.00006578,0.00000880,0.00002968,0.00000409,0.000
 00622,0.00008674,0.00001569,0.00000845,-0.00000386,0.00000055,-0.00423
 141,-0.00332219,0.00372144,0.00191041,-0.00378483,0.00359380,-0.000001
 54,0.00000240,-0.00000606,0.00001125,0.00001019,-0.00003794,-0.0000915
 7,-0.00011180,0.00002556,-0.00000086,0.00000587,0.00000264,-0.02364339
 ,0.00797910,-0.00118214,0.02697715,0.00241264,0.00031024,0.00109191,0.
 00006248,-0.00022596,0.04453577,-0.06437094,0.00604350,-0.00015163,0.0
 0011959,-0.00118099,-0.00014933,0.00044636,-0.00144198,-0.04565948,0.0
 6144660,0.00006629,-0.00028774,-0.00089375,-0.00017978,-0.00006264,0.0
 0006864,0.00014463,0.00005385,0.00001773,0.00005753,0.00025083,-0.0001
 6184,0.00005389,-0.00003941,0.00005425,-0.00012696,0.00033106,-0.00082
 050,-0.00007736,-0.00005728,-0.00002647,0.00000919,-0.00002645,0.00004
 397,0.00029621,0.00001842,0.00040886,0.00004733,-0.00002161,0.00002185
 ,0.00001514,0.00000489,-0.00000063,-0.00000557,0.00005882,0.00001273,-
 0.00000574,-0.00000362,0.00000241,0.00146947,0.00328927,0.00711778,-0.
 00036993,0.00361432,0.00621734,0.00000215,0.00000302,-0.00001170,0.000
 01144,-0.00001878,-0.00003061,0.00002198,-0.00003501,0.00003000,-0.000
 00074,-0.00000148,0.00001100,0.00753521,-0.00208417,0.00268495,-0.0084
 4474,0.00125776,0.00540561,-0.00039621,-0.00017346,-0.00043585,-0.0066
 0896,0.00606681,-0.04376061,-0.00004595,-0.00115028,-0.00331001,-0.000
 09274,-0.00148036,-0.00351396,0.00662420,-0.00950679,0.03086880\\0.000
 03335,-0.00000233,0.00001049,0.00000693,-0.00001291,-0.00000934,-0.000
 02087,0.00001002,0.00000129,-0.00000755,0.00000653,-0.00000293,-0.0000
 1319,0.00001144,0.00000099,-0.00003122,0.00001305,-0.00000594,0.000015
 69,0.00001141,0.00000375,0.00000866,-0.00000170,-0.00000239,0.00001091
 ,0.00001515,0.00000076,-0.00000305,0.00000074,0.00000195,-0.00000009,-
 0.00000167,0.00000332,-0.00000172,-0.00001635,0.00000039,0.00000005,0.
 00000257,-0.00000114,-0.00000137,-0.00002393,0.00000493,0.00002295,-0.
 00000355,0.00000272,0.00000110,0.00000018,0.00000116,-0.00000232,-0.00
 000211,-0.00000075,-0.00000312,-0.00000172,-0.00000162,0.00000115,0.00
 000398,-0.00000432,0.00000750,0.00000384,-0.00000342,-0.00001360,0.000
 01188,-0.00000407,-0.00000613,-0.00000160,-0.00000223,-0.00000131,-0.0
 0001604,0.00000610,-0.00000213,-0.00000054,-0.00000008,0.00000063,-0.0
 0000398,-0.00000017,-0.00000126,-0.00000238,0.00000056\\\@


 KNOWLEDGE IS CHIMERA - FOR BEYOND IT LIES OTHER KNOWLEDGE,
 AND THE INCOMPLETENESS OF WHAT IS KNOWN RENDERS THE KNOWING FALSE.
     -- THE THOMAS COVENANT CHRONICLES
 Job cpu time:       0 days  1 hours  7 minutes 41.6 seconds.
 File lengths (MBytes):  RWF=    189 Int=      0 D2E=      0 Chk=      6 Scr=      1
 Normal termination of Gaussian 09 at Mon Jun 10 01:51:08 2019.
