c0709 2591997 SLURM_STEP_IDnodef 0 0 1 8 5120 SLURM_MEM_PER_NODEnodef NUM_THREADS: ## 1
/scratch/2591997/uviqoavv.2WF0Yqf17p
OMP_STACKSIZE=128m
GAUSS_PDEF=8
GAUSS_MDEF=36864MB
GAUSS_RDEF=SCF=Direct
 Entering Gaussian System, Link 0=g09.exe
 Initial command:
 /opt/cesga/easybuild-cesga/software/Core/g09/e1/l1.exe "/scratch/2591997/uviqoavv.2WF0Yqf17p/Gau-7758.inp" -scrdir="/scratch/2591997/uviqoavv.2WF0Yqf17p/"
 Default is to use a total of   8 processors:
                                8 via shared-memory
                                1 via Linda
 Entering Link 1 = /opt/cesga/easybuild-cesga/software/Core/g09/e1/l1.exe PID=      7785.
  
 Copyright (c) 1988,1990,1992,1993,1995,1998,2003,2009,2015,
            Gaussian, Inc.  All Rights Reserved.
  
 This is part of the Gaussian(R) 09 program.  It is based on
 the Gaussian(R) 03 system (copyright 2003, Gaussian, Inc.),
 the Gaussian(R) 98 system (copyright 1998, Gaussian, Inc.),
 the Gaussian(R) 94 system (copyright 1995, Gaussian, Inc.),
 the Gaussian 92(TM) system (copyright 1992, Gaussian, Inc.),
 the Gaussian 90(TM) system (copyright 1990, Gaussian, Inc.),
 the Gaussian 88(TM) system (copyright 1988, Gaussian, Inc.),
 the Gaussian 86(TM) system (copyright 1986, Carnegie Mellon
 University), and the Gaussian 82(TM) system (copyright 1983,
 Carnegie Mellon University). Gaussian is a federally registered
 trademark of Gaussian, Inc.
  
 This software contains proprietary and confidential information,
 including trade secrets, belonging to Gaussian, Inc.
  
 This software is provided under written license and may be
 used, copied, transmitted, or stored only in accord with that
 written license.
  
 The following legend is applicable only to US Government
 contracts under FAR:
  
                    RESTRICTED RIGHTS LEGEND
  
 Use, reproduction and disclosure by the US Government is
 subject to restrictions as set forth in subparagraphs (a)
 and (c) of the Commercial Computer Software - Restricted
 Rights clause in FAR 52.227-19.
  
 Gaussian, Inc.
 340 Quinnipiac St., Bldg. 40, Wallingford CT 06492
  
  
 ---------------------------------------------------------------
 Warning -- This program may not be used in any manner that
 competes with the business of Gaussian, Inc. or will provide
 assistance to any competitor of Gaussian, Inc.  The licensee
 of this program is prohibited from giving any competitor of
 Gaussian, Inc. access to this program.  By using this program,
 the user acknowledges that Gaussian, Inc. is engaged in the
 business of creating and licensing software in the field of
 computational chemistry and represents and warrants to the
 licensee that it is not a competitor of Gaussian, Inc. and that
 it will not use this program in any manner prohibited above.
 ---------------------------------------------------------------
  

 Cite this work as:
 Gaussian 09, Revision E.01,
 M. J. Frisch, G. W. Trucks, H. B. Schlegel, G. E. Scuseria, 
 M. A. Robb, J. R. Cheeseman, G. Scalmani, V. Barone, B. Mennucci, 
 G. A. Petersson, H. Nakatsuji, M. Caricato, X. Li, H. P. Hratchian, 
 A. F. Izmaylov, J. Bloino, G. Zheng, J. L. Sonnenberg, M. Hada, 
 M. Ehara, K. Toyota, R. Fukuda, J. Hasegawa, M. Ishida, T. Nakajima, 
 Y. Honda, O. Kitao, H. Nakai, T. Vreven, J. A. Montgomery, Jr., 
 J. E. Peralta, F. Ogliaro, M. Bearpark, J. J. Heyd, E. Brothers, 
 K. N. Kudin, V. N. Staroverov, T. Keith, R. Kobayashi, J. Normand, 
 K. Raghavachari, A. Rendell, J. C. Burant, S. S. Iyengar, J. Tomasi, 
 M. Cossi, N. Rega, J. M. Millam, M. Klene, J. E. Knox, J. B. Cross, 
 V. Bakken, C. Adamo, J. Jaramillo, R. Gomperts, R. E. Stratmann, 
 O. Yazyev, A. J. Austin, R. Cammi, C. Pomelli, J. W. Ochterski, 
 R. L. Martin, K. Morokuma, V. G. Zakrzewski, G. A. Voth, 
 P. Salvador, J. J. Dannenberg, S. Dapprich, A. D. Daniels, 
 O. Farkas, J. B. Foresman, J. V. Ortiz, J. Cioslowski, 
 and D. J. Fox, Gaussian, Inc., Wallingford CT, 2013.
 
 ******************************************
 Gaussian 09:  ES64L-G09RevE.01 30-Nov-2015
                 9-May-2019 
 ******************************************
 Default route: SCF=Direct
 ----------------------------------------------------------------------
 # freq=roa cphf=rdfreq wb97xd/def2svp nosymm integral=ultrafinegrid sc
 f=tight
 ----------------------------------------------------------------------
 1/10=4,30=1,38=1,83=21/1,3;
 2/12=2,15=1,17=6,18=5,40=1/2;
 3/5=43,7=101,11=2,16=1,25=1,30=1,36=2,71=2,74=-58,75=-5,140=1/1,2,3;
 4//1;
 5/5=2,32=2,38=5,98=1/2;
 8/6=4,10=90,11=11/1;
 10/13=10,15=4,31=1,49=111,72=3/2;
 11/6=3,8=1,9=11,15=111,16=1,31=1/1,2,10;
 10/6=1,31=1,49=111/2;
 6/7=2,8=2,9=2,10=2,18=1,28=1/1;
 7/8=1,10=1,25=1,30=1/1,2,3,16;
 1/10=4,30=1/3;
 99//99;
 -----
 Title
 -----
 Symbolic Z-matrix:
 Charge =  2 Multiplicity = 1
 C                     0.93232   1.87734  -0.91939 
 C                     2.09788   1.16138  -0.94695 
 C                     2.43719  -0.24204  -0.94869 
 C                     1.72345  -1.40671  -0.94437 
 C                     0.31767  -1.7455   -1.00562 
 C                    -0.84746  -1.03136  -1.04526 
 C                    -1.19193   0.37424  -0.96319 
 C                    -0.47405   1.54249  -0.90343 
 C                    -2.61469   0.59131  -1.05363 
 C                    -2.0115   -1.86758  -1.20521 
 C                     0.11114  -3.17645  -1.12035 
 C                     2.57262  -2.58035  -0.99988 
 C                     3.87231  -0.45469  -0.99757 
 C                     3.27483   2.00671  -0.99716 
 C                     1.14863   3.30683  -0.94091 
 C                    -1.31443   2.71609  -0.90503 
 P                     4.32267  -2.129    -1.06024 
 P                     4.75454   1.10867  -1.07079 
 P                     2.83258   3.74831  -1.02812 
 P                    -0.40292   4.19549  -0.96358 
 P                    -3.05584   2.279    -1.03394 
 P                    -3.48357  -0.96232  -1.28913 
 P                    -1.55094  -3.62064  -1.32598 
 P                     1.69068  -4.05472  -1.15643 
 C                    -1.66462   0.36697   2.26437 
 N                    -2.42448  -0.77032   2.25836 
 C                    -3.77874  -0.71803   2.24526 
 C                    -4.45402   0.48028   2.24839 
 C                    -3.70895   1.66338   2.2536 
 C                    -2.32096   1.59874   2.2759 
 C                    -0.19798   0.25807   2.2713 
 N                     0.37898  -0.9693    2.46798 
 C                    -0.46483  -2.08364   2.92077 
 C                    -1.78052  -2.08929   2.18881 
 C                     0.63709   1.35745   2.09827 
 C                     2.01725   1.20377   2.07933 
 C                     2.56856  -0.07272   2.22103 
 C                     1.71883  -1.13734   2.42212 
 H                    -4.29541  -1.67916   2.24404 
 H                    -5.54419   0.48547   2.24675 
 H                    -4.20837   2.63385   2.26801 
 H                    -1.74626   2.52153   2.30758 
 H                     0.05983  -3.02664   2.72745 
 H                    -0.60612  -1.9829    4.00881 
 H                    -2.44808  -2.8274    2.64912 
 H                    -1.65297  -2.35405   1.12799 
 H                     0.21228   2.3447    1.93013 
 H                     2.65842   2.07579   1.94288 
 H                     3.64422  -0.24443   2.18854 
 H                     2.08298  -2.15419   2.5752 
 
 Using perturbation frequencies:    0.090224

 GradGradGradGradGradGradGradGradGradGradGradGradGradGradGradGradGradGrad
 Berny optimization.
 Initialization pass.
 Trust Radius=3.00D-01 FncErr=1.00D-07 GrdErr=1.00D-07
 Number of steps in this run=      2 maximum allowed number of steps=      2.
 GradGradGradGradGradGradGradGradGradGradGradGradGradGradGradGradGradGrad

                          Input orientation:                          
 ---------------------------------------------------------------------
 Center     Atomic      Atomic             Coordinates (Angstroms)
 Number     Number       Type             X           Y           Z
 ---------------------------------------------------------------------
      1          6           0        0.932321    1.877338   -0.919393
      2          6           0        2.097880    1.161375   -0.946949
      3          6           0        2.437194   -0.242039   -0.948694
      4          6           0        1.723453   -1.406710   -0.944373
      5          6           0        0.317669   -1.745501   -1.005617
      6          6           0       -0.847461   -1.031358   -1.045258
      7          6           0       -1.191933    0.374237   -0.963185
      8          6           0       -0.474048    1.542493   -0.903433
      9          6           0       -2.614688    0.591312   -1.053630
     10          6           0       -2.011495   -1.867582   -1.205210
     11          6           0        0.111135   -3.176452   -1.120348
     12          6           0        2.572620   -2.580351   -0.999875
     13          6           0        3.872307   -0.454691   -0.997570
     14          6           0        3.274832    2.006715   -0.997160
     15          6           0        1.148633    3.306833   -0.940913
     16          6           0       -1.314434    2.716086   -0.905026
     17         15           0        4.322670   -2.128995   -1.060242
     18         15           0        4.754539    1.108667   -1.070795
     19         15           0        2.832576    3.748307   -1.028119
     20         15           0       -0.402924    4.195487   -0.963577
     21         15           0       -3.055838    2.279003   -1.033936
     22         15           0       -3.483569   -0.962320   -1.289131
     23         15           0       -1.550935   -3.620636   -1.325976
     24         15           0        1.690675   -4.054719   -1.156427
     25          6           0       -1.664624    0.366969    2.264368
     26          7           0       -2.424482   -0.770323    2.258356
     27          6           0       -3.778739   -0.718032    2.245263
     28          6           0       -4.454022    0.480276    2.248387
     29          6           0       -3.708951    1.663381    2.253600
     30          6           0       -2.320957    1.598736    2.275895
     31          6           0       -0.197977    0.258074    2.271301
     32          7           0        0.378984   -0.969302    2.467979
     33          6           0       -0.464831   -2.083636    2.920771
     34          6           0       -1.780524   -2.089288    2.188808
     35          6           0        0.637085    1.357450    2.098272
     36          6           0        2.017251    1.203765    2.079329
     37          6           0        2.568563   -0.072716    2.221030
     38          6           0        1.718828   -1.137337    2.422121
     39          1           0       -4.295414   -1.679155    2.244040
     40          1           0       -5.544188    0.485467    2.246751
     41          1           0       -4.208369    2.633853    2.268009
     42          1           0       -1.746262    2.521532    2.307584
     43          1           0        0.059833   -3.026638    2.727450
     44          1           0       -0.606115   -1.982898    4.008807
     45          1           0       -2.448080   -2.827402    2.649115
     46          1           0       -1.652974   -2.354049    1.127994
     47          1           0        0.212279    2.344699    1.930131
     48          1           0        2.658417    2.075792    1.942877
     49          1           0        3.644218   -0.244425    2.188543
     50          1           0        2.082980   -2.154190    2.575197
 ---------------------------------------------------------------------
                    Distance matrix (angstroms):
                    1          2          3          4          5
     1  C    0.000000
     2  C    1.368170   0.000000
     3  C    2.599473   1.443852   0.000000
     4  C    3.378089   2.595238   1.365981   0.000000
     5  C    3.675622   3.409182   2.599235   1.447328   0.000000
     6  C    3.412327   3.673251   3.379543   2.600128   1.367150
     7  C    2.602630   3.382709   3.681110   3.416373   2.602689
     8  C    1.445770   2.600377   3.414957   3.678109   3.383513
     9  C    3.775335   4.748121   5.121230   4.777394   3.749896
    10  C    4.772019   5.111579   4.743314   3.772304   2.340886
    11  C    5.124014   4.774303   3.748439   2.400526   1.450324
    12  C    4.750584   3.772094   2.342790   1.449689   2.404540
    13  C    3.753397   2.400588   1.451606   2.350903   3.781760
    14  C    2.347370   1.449944   2.400184   3.749804   4.777448
    15  C    1.445929   2.346081   3.775572   4.748465   5.120622
    16  C    2.398252   3.750036   4.777774   5.121304   4.751804
    17  P    5.250239   3.973545   2.669844   2.700194   4.023690
    18  P    3.901683   2.660066   2.685033   3.940886   5.276015
    19  P    2.668954   2.690462   4.010673   5.273648   6.042118
    20  P    2.675565   3.931938   5.268598   5.992200   5.984677
    21  P    4.009971   5.274227   6.044528   6.036069   5.251474
    22  P    5.263122   5.981617   5.974122   5.237310   3.891422
    23  P    6.046453   6.027034   5.240461   3.970983   2.666541
    24  P    5.985030   5.236156   3.890626   2.656688   2.690795
    25  C    4.377405   5.009997   5.245910   4.992096   4.368617
    26  N    5.326943   5.870025   5.848089   5.278999   4.373086
    27  C    6.240599   6.946729   7.004695   6.397044   5.329585
    28  C    6.403070   7.321304   7.630984   7.205250   6.189641
    29  C    5.626284   6.649422   7.187518   7.011669   6.201342
    30  C    4.568512   5.486723   6.035431   5.979974   5.377229
    31  C    3.752348   4.055126   4.190776   4.099263   3.875357
    32  N    4.459129   4.376771   4.054478   3.693653   3.559791
    33  C    5.691064   5.661876   5.175518   4.492900   4.017856
    34  C    5.723160   5.953302   5.571839   4.749799   3.837311
    35  C    3.076321   3.383155   3.883653   4.251878   4.400507
    36  C    3.259311   3.027649   3.381660   4.005455   4.593870
    37  C    4.042556   3.432290   3.176961   3.537446   4.275042
    38  C    4.568651   4.096143   3.560899   3.377257   3.752665
    39  H    7.070019   7.689293   7.588601   6.816668   5.643156
    40  H    7.342135   8.310101   8.628012   8.159792   7.065160
    41  H    6.095781   7.230002   7.923474   7.863336   7.097914
    42  H    4.243015   5.217225   5.978459   6.168082   5.783138
    43  H    6.173304   5.932478   5.188436   4.344431   3.955197
    44  H    6.446345   6.462009   6.071996   5.503896   5.104330
    45  H    6.804112   7.036176   6.595016   5.686230   4.709240
    46  H    5.364716   5.543690   5.050019   4.073379   2.967501
    47  H    2.976016   3.637765   4.464201   4.961803   5.035818
    48  H    3.348340   3.082443   3.712474   4.619328   5.364233
    49  H    4.638484   3.768122   3.361424   3.854271   4.849929
    50  H    5.457966   4.837221   4.024872   3.615987   4.013176
                    6          7          8          9         10
     6  C    0.000000
     7  C    1.449515   0.000000
     8  C    2.604661   1.372498   0.000000
     9  C    2.399212   1.442059   2.347263   0.000000
    10  C    1.442162   2.399169   3.752789   2.536332   0.000000
    11  C    2.350739   3.785509   4.760035   4.650872   2.495175
    12  C    3.754783   4.785687   5.127312   6.080337   4.643739
    13  C    4.755106   5.131747   4.784183   6.571025   6.054626
    14  C    5.121084   4.755852   3.778675   6.057475   6.557341
    15  C    4.776524   3.752181   2.397372   4.642127   6.068841
    16  C    3.779030   2.345772   1.443458   2.495478   4.646075
    17  P    5.285384   6.056933   6.042592   7.451647   6.341214
    18  P    5.996896   5.992620   5.249223   7.387385   7.392925
    19  P    6.032260   5.252165   3.976798   6.296027   7.418530
    20  P    5.246351   3.901857   2.654629   4.229667   6.277475
    21  P    3.979390   2.665948   2.687958   1.744506   4.279504
    22  P    2.648265   2.672868   3.934472   1.795602   1.730186
    23  P    2.697784   4.027345   5.291137   4.352729   1.816562
    24  P    3.949076   5.287951   6.006564   6.335008   4.300234
    25  C    3.684657   3.261991   3.582498   3.458621   4.141438
    26  N    3.670014   3.634215   4.376096   3.586012   3.656614
    27  C    4.417929   4.263655   5.093647   3.735250   4.043560
    28  C    5.112770   4.578937   5.186759   3.781375   4.837945
    29  C    5.131492   4.283104   4.521733   3.644793   5.226129
    30  C    4.485381   3.642215   3.677277   3.490977   4.922318
    31  C    3.617185   3.385756   3.435824   4.123919   4.460201
    32  N    3.721673   4.005716   4.289895   4.878454   4.473658
    33  C    4.121053   4.653486   5.270051   5.251009   4.411640
    34  C    3.528315   4.043570   4.945570   4.288922   3.409085
    35  C    4.218064   3.699261   3.206102   4.592982   5.322481
    36  C    4.792222   4.499319   3.901048   5.625424   6.037563
    37  C    4.822536   4.947759   4.650661   6.166881   5.994797
    38  C    4.315065   4.713564   4.800990   5.817941   5.254151
    39  H    4.809106   4.912668   5.906644   4.342175   4.141149
    40  H    5.932733   5.409084   6.061954   4.414260   5.471087
    41  H    5.975551   4.964410   5.019389   4.212491   6.095279
    42  H    4.967134   3.951719   3.589941   3.972112   5.628001
    43  H    4.363216   5.172394   5.860486   5.877005   4.593433
    44  H    5.148519   5.533532   6.047803   6.024051   5.401330
    45  H    4.408645   4.987696   5.967695   5.042389   3.995958
    46  H    2.668593   3.468304   4.549681   3.789397   2.410193
    47  H    4.623175   3.771712   3.023849   4.468662   5.702530
    48  H    5.556484   5.115240   4.265938   6.244067   6.875226
    49  H    5.590341   5.805557   5.451010   7.098172   6.792591
    50  H    4.791235   5.444093   5.683724   6.540203   5.580174
                   11         12         13         14         15
    11  C    0.000000
    12  C    2.535500   0.000000
    13  C    4.644295   2.491510   0.000000
    14  C    6.073662   4.640505   2.532883   0.000000
    15  C    6.568225   6.057240   4.644424   2.492828   0.000000
    16  C    6.066351   6.570421   6.079858   4.644681   2.533174
    17  P    4.340254   1.808326   1.734949   4.266854   6.295790
    18  P    6.318695   4.286567   1.796603   1.732468   4.225087
    19  P    7.440903   6.334058   4.329800   1.797134   1.743034
    20  P    7.391503   7.400484   6.316875   4.279923   1.788169
    21  P    6.308659   7.435995   7.448060   6.336630   4.329280
    22  P    4.225253   6.275278   7.379133   7.387584   6.309058
    23  P    1.732645   4.265236   6.288292   7.420460   7.444848
    24  P    1.807651   1.725137   4.212476   6.267049   7.384626
    25  C    5.212049   6.107063   6.478655   6.142032   5.179869
    26  N    4.861528   6.234044   7.095790   7.126886   6.294893
    27  C    5.701078   7.371493   8.314074   8.227419   7.115494
    28  C    6.749866   8.324202   8.985441   8.520492   7.039233
    29  C    7.028554   8.249394   8.516561   7.710937   6.041686
    30  C    6.344443   7.220979   7.299908   6.495552   5.030259
    31  C    4.836817   5.141348   5.268848   5.079467   4.628888
    32  N    4.221297   4.408348   4.947541   5.408309   5.522521
    33  C    4.225710   4.984406   6.067753   6.787211   6.824443
    34  C    3.963687   5.418367   6.691742   7.244602   6.891534
    35  C    5.585016   5.371321   4.830606   4.118368   3.646700
    36  C    5.749566   4.910139   3.957148   3.419214   3.781435
    37  C    5.180438   4.081970   3.493571   3.896100   4.841016
    38  C    4.392238   3.810683   4.098508   4.898744   5.602300
    39  H    5.742707   7.648858   8.872374   9.022175   8.040003
    40  H    7.531911   9.264038  10.003994   9.519048   7.931908
    41  H    7.993668   9.156899   9.246645   8.188585   6.280729
    42  H    6.904177   7.457965   7.165910   6.033055   4.421521
    43  H    3.851055   4.517325   5.918247   7.038720   7.399678
    44  H    5.314814   5.962231   6.888795   7.485885   7.453866
    45  H    4.569493   6.211569   7.673028   8.331610   7.965770
    46  H    2.973797   4.736527   6.217259   6.914898   6.646425
    47  H    6.308626   6.197763   5.459288   4.250000   3.169441
    48  H    6.592273   5.508795   4.064862   3.004756   3.480108
    49  H    5.659348   4.095227   3.201180   3.918262   5.350969
    50  H    4.311641   3.633525   4.342194   5.612074   6.561921
                   16         17         18         19         20
    16  C    0.000000
    17  P    7.434773   0.000000
    18  P    6.280423   3.266355   0.000000
    19  P    4.275316   6.063340   3.265496   0.000000
    20  P    1.738651   7.895547   6.011604   3.266894   0.000000
    21  P    1.800041   8.594971   7.897660   6.068963   3.273502
    22  P    4.287581   7.896258   8.497240   7.883643   6.016588
    23  P    6.355091   6.065875   7.886091   8.579348   7.908289
    24  P    7.411996   3.262677   6.004594   7.887180   8.513886
    25  C    3.960561   7.289071   7.271800   6.519105   5.164210
    26  N    4.836759   7.640886   8.133400   7.671740   6.255143
    27  C    5.271649   8.862844   9.335411   8.623961   6.770188
    28  C    4.979947   9.735792   9.808641   8.631919   6.366388
    29  C    4.101075   9.480011   9.109883   7.609742   5.262281
    30  C    3.518497   8.316464   7.842394   6.488148   4.573417
    31  C    4.168615   6.101928   6.034942   5.679098   5.099967
    32  N    5.275122   5.417185   5.998863   6.363855   6.249960
    33  C    6.196441   6.226611   7.305150   7.776772   7.383724
    34  C    5.734167   6.914252   7.972388   8.105975   7.164755
    35  C    3.830681   5.976207   5.201760   4.506739   4.302440
    36  C    4.721611   5.126320   4.174335   4.098254   4.905805
    37  C    5.712032   4.251108   4.124351   5.022638   6.098280
    38  C    5.926167   4.459847   5.143981   6.083922   6.663617
    39  H    6.174221   9.240780  10.033032   9.537956   7.742849
    40  H    5.727144  10.729702  10.837817   9.567710   7.106550
    41  H    4.295320  10.321851   9.685428   7.853749   5.230990
    42  H    3.247336   8.354735   7.461236   5.796348   3.912439
    43  H    6.932703   5.772708   7.318994   8.227532   8.123848
    44  H    6.835782   7.071741   8.006044   8.369106   7.933368
    45  H    6.681866   7.751784   9.011553   9.200398   8.158136
    46  H    5.473029   6.367680   7.607976   7.874499   6.988112
    47  H    3.241434   6.771380   5.582603   4.193723   3.489618
    48  H    4.929916   5.428508   3.796219   3.413862   4.723599
    49  H    6.551567   3.816609   3.699588   5.191106   6.784397
    50  H    6.882875   4.270042   5.574650   6.955951   7.682515
                   21         22         23         24         25
    21  P    0.000000
    22  P    3.279368   0.000000
    23  P    6.095553   3.286803   0.000000
    24  P    7.915834   6.029373   3.274937   0.000000
    25  C    4.058344   4.207484   5.366981   6.520061   0.000000
    26  N    4.531687   3.707181   4.662060   6.275549   1.367791
    27  C    4.500883   3.555101   5.112922   7.253928   2.376357
    28  C    3.995495   3.941687   6.166155   8.361593   2.791744
    29  C    3.407850   4.415433   6.737302   8.572101   2.420759
    30  C    3.458004   4.540934   6.388134   7.735346   1.395764
    31  C    4.814158   4.996114   5.460338   5.823788   1.470700
    32  N    5.883273   5.388436   5.014803   4.937272   2.450186
    33  C    6.433167   5.300321   4.645089   5.015468   2.806391
    34  C    5.576242   4.033172   3.840761   5.206029   2.460151
    35  C    4.929266   5.816839   6.426060   6.402710   2.511276
    36  C    6.048536   6.804224   6.899485   6.182914   3.780300
    37  C    6.910808   7.052725   6.491475   5.294738   4.256181
    38  C    6.812719   6.392883   5.559348   4.617133   3.706153
    39  H    5.286652   3.695435   4.903726   7.282839   3.332881
    40  H    4.491276   4.341048   6.750595   9.194463   3.881413
    41  H    3.515265   5.109896   7.687478   9.553140   3.407259
    42  H    3.597161   5.300172   7.139127   8.188955   2.156542
    43  H    7.211467   5.740212   4.402007   4.336023   3.834679
    44  H    7.042315   6.114693   5.659928   6.020575   3.112135
    45  H    6.325315   4.478901   4.151558   5.754802   3.311471
    46  H    5.301617   3.336238   2.763444   4.392135   2.948800
    47  H    4.412550   5.912640   7.021138   7.257069   2.746979
    48  H    6.446349   7.576278   7.800855   6.937245   4.659626
    49  H    7.851294   7.963350   7.123220   5.433553   5.344470
    50  H    7.686774   6.880411   5.529462   4.206059   4.527405
                   26         27         28         29         30
    26  N    0.000000
    27  C    1.355329   0.000000
    28  C    2.383932   1.375485   0.000000
    29  C    2.751872   2.382450   1.398176   0.000000
    30  C    2.371385   2.737422   2.408667   1.389677   0.000000
    31  C    2.452569   3.711511   4.261903   3.781817   2.510864
    32  N    2.818325   4.171259   5.050489   4.867052   3.731139
    33  C    2.450269   3.647351   4.789508   5.000957   4.173839
    34  C    1.469417   2.424127   3.708612   4.219663   3.728428
    35  C    3.731787   4.881468   5.168301   4.359558   2.973177
    36  C    4.863956   6.108546   6.513785   5.747261   4.360584
    37  C    5.041681   6.380068   7.044377   6.513238   5.167608
    38  C    4.162756   5.516370   6.383646   6.110090   4.881326
    39  H    2.080040   1.091197   2.165252   3.393608   3.826756
    40  H    3.362991   2.136638   1.090180   2.180739   3.410196
    41  H    3.843275   3.379383   2.167631   1.091532   2.152639
    42  H    3.361356   3.824869   3.391489   2.142775   1.087580
    43  H    3.388632   4.505197   5.736099   6.035275   5.221700
    44  H    2.800156   3.843893   4.896192   5.099382   4.332640
    45  H    2.093997   2.526498   3.889103   4.681171   4.443664
    46  H    2.093115   2.905808   4.139390   4.651212   4.169939
    47  H    4.094338   5.040620   5.035050   3.993103   2.663325
    48  H    5.834017   7.023807   7.295601   6.388271   5.013247
    49  H    6.091844   7.438267   8.130822   7.596911   6.244052
    50  H    4.725748   6.044101   7.055467   6.944331   5.793850
                   31         32         33         34         35
    31  C    0.000000
    32  N    1.370408   0.000000
    33  C    2.444714   1.469280   0.000000
    34  C    2.832202   2.448628   1.505606   0.000000
    35  C    1.391364   2.370037   3.705644   4.211061   0.000000
    36  C    2.416282   2.749034   4.204255   5.027850   1.388825
    37  C    2.786699   2.378888   3.706065   4.793971   2.406460
    38  C    2.375723   1.351118   2.431563   3.634021   2.738432
    39  H    4.532393   4.733290   3.910874   2.548712   5.794115
    40  H    5.351101   6.103217   5.731881   4.560470   6.244240
    41  H    4.661285   5.836653   6.057630   5.311192   5.013625
    42  H    2.742580   4.090027   4.819298   4.612477   2.660684
    43  H    3.326240   2.098050   1.096311   2.134403   4.466465
    44  H    2.864866   2.090920   1.101786   2.168629   4.043960
    45  H    3.837430   3.387866   2.135477   1.096506   5.228256
    46  H    3.201149   2.800346   2.167685   1.100770   4.467777
    47  H    2.153767   3.361499   4.588028   4.868102   1.087838
    48  H    3.401610   3.839810   5.292617   6.092009   2.150801
    49  H    3.875799   3.356380   4.561046   5.729864   3.408372
    50  H    3.333787   2.078234   2.572108   3.883320   3.827491
                   36         37         38         39         40
    36  C    0.000000
    37  C    1.397651   0.000000
    38  C    2.384811   1.376919   0.000000
    39  H    6.941765   7.049493   6.041224   0.000000
    40  H    7.597325   8.131971   7.444169   2.499006   0.000000
    41  H    6.390547   7.297570   7.026898   4.313953   2.529906
    42  H    3.994076   5.035408   5.040564   4.914060   4.309699
    43  H    4.706151   3.908432   2.532775   4.584493   6.631064
    44  H    4.556287   4.113821   2.939031   4.100925   5.795018
    45  H    6.042693   5.739186   4.502329   2.212510   4.552239
    46  H    5.199387   4.921441   3.811063   2.946783   4.945302
    47  H    2.140541   3.388302   3.825744   6.050557   6.057549
    48  H    1.090937   2.168301   3.381819   7.908609   8.360873
    49  H    2.180872   1.089758   2.135176   8.068413   9.217534
    50  H    3.395006   2.166509   1.090884   6.404626   8.077707
                   41         42         43         44         45
    41  H    0.000000
    42  H    2.464985   0.000000
    43  H    7.104210   5.849825   0.000000
    44  H    6.109092   4.948129   1.781784   0.000000
    45  H    5.750580   5.405579   2.517034   2.440243   0.000000
    46  H    5.719165   5.017113   2.438102   3.087515   1.780468
    47  H    4.442961   2.002404   5.432331   4.870191   5.860467
    48  H    6.897093   4.442172   5.779532   5.603410   7.114520
    49  H    8.363846   6.059865   4.569349   4.939735   6.633249
    50  H    7.912066   6.049553   2.208500   3.052181   4.581395
                   46         47         48         49         50
    46  H    0.000000
    47  H    5.118674   0.000000
    48  H    6.235032   2.460907   0.000000
    49  H    5.799614   4.306802   2.532896   0.000000
    50  H    4.011445   4.914838   4.315519   2.496832   0.000000
 Symmetry turned off by external request.
 Stoichiometry    C28H12N2P8(2+)
 Framework group  C1[X(C28H12N2P8)]
 Deg. of freedom   144
 Full point group                 C1      NOp   1
 Rotational constants (GHZ):      0.1098615      0.0892808      0.0667079
 Standard basis: def2SVP (5D, 7F)
   624 basis functions,  1130 primitive gaussians,   662 cartesian basis functions
   156 alpha electrons      156 beta electrons
       nuclear repulsion energy      5964.5209696616 Hartrees.
 NAtoms=   50 NActive=   50 NUniq=   50 SFac= 1.00D+00 NAtFMM=   60 NAOKFM=F Big=F
 Integral buffers will be    131072 words long.
 Raffenetti 2 integral format.
 Two-electron integral symmetry is turned off.
 Nuclear repulsion after empirical dispersion term =     5964.4474733681 Hartrees.
 One-electron integrals computed using PRISM.
   1 Symmetry operations used in ECPInt.
 ECPInt:  NShTT=   39340 NPrTT=  159940 LenC2=   35257 LenP2D=   91148.
 LDataN:  DoStor=T MaxTD1= 4 Len=   56
 NBasis=   624 RedAO= T EigKep=  8.36D-05  NBF=   624
 NBsUse=   624 1.00D-06 EigRej= -1.00D+00 NBFU=   624
 ExpMin= 1.05D-01 ExpMax= 8.00D+03 ExpMxC= 1.20D+03 IAcc=3 IRadAn=         5 AccDes= 0.00D+00
 Harris functional with IExCor= 4639 and IRadAn=       5 diagonalized for initial guess.
 HarFok:  IExCor= 4639 AccDes= 0.00D+00 IRadAn=         5 IDoV= 1 UseB2=F ITyADJ=14
 ICtDFT=  3500011 ScaDFX=  1.000000  1.000000  1.000000  1.000000
 FoFCou: FMM=F IPFlag=           0 FMFlag=      100000 FMFlg1=           0
         NFxFlg=           0 DoJE=T BraDBF=F KetDBF=T FulRan=T
         wScrn=  0.000000 ICntrl=     500 IOpCl=  0 I1Cent=   200000004 NGrid=           0
         NMat0=    1 NMatS0=      1 NMatT0=    0 NMatD0=    1 NMtDS0=    0 NMtDT0=    0
 Symmetry not used in FoFCou.
 Requested convergence on RMS density matrix=1.00D-08 within 128 cycles.
 Requested convergence on MAX density matrix=1.00D-06.
 Requested convergence on             energy=1.00D-06.
 No special actions if energy rises.
 Integral accuracy reduced to 1.0D-05 until final iterations.
 Initial convergence to 1.0D-05 achieved.  Increase integral accuracy.
 SCF Done:  E(RwB97XD) =  -3911.71999845     A.U. after   27 cycles
            NFock= 27  Conv=0.87D-08     -V/T= 2.0050
 DoSCS=F DFT=T ScalE2(SS,OS)=  1.000000  1.000000
 Range of M.O.s used for correlation:     1   624
 NBasis=   624 NAE=   156 NBE=   156 NFC=     0 NFV=     0
 NROrb=    624 NOA=   156 NOB=   156 NVA=   468 NVB=   468

 **** Warning!!: The largest alpha MO coefficient is  0.22987504D+02

          Differentiating once with respect to electric field.
                with respect to dipole field.
                with respect to quadrupole field.
          Differentiating once with respect to magnetic field using GIAOs.
          Electric field/nuclear overlap derivatives assumed to be zero.
 FoFCou: FMM=F IPFlag=           0 FMFlag=      100000 FMFlg1=           0
         NFxFlg=           0 DoJE=F BraDBF=F KetDBF=T FulRan=T
         wScrn=  0.000000 ICntrl=    6100 IOpCl=  0 I1Cent=           7 NGrid=          50
         NMat0=    1 NMatS0=      1 NMatT0=    0 NMatD0=    1 NMtDS0=    0 NMtDT0=    0
 Symmetry not used in FoFCou.
   1 Symmetry operations used in ECPInt.
 ECPInt:  NShTT=   39340 NPrTT=  159940 LenC2=   39341 LenP2D=  159940.
 LDataN:  DoStor=T MaxTD1= 5 Len=  102
 FoFJK:  IHMeth= 1 ICntrl=    6127 DoSepK=T KAlg= 0 I1Cent=   0 FoldK=F
 IRaf=         1 NMat=   1 IRICut=       1 DoRegI=T DoRafI=F ISym2E= 0.
 CalDSu exits because no D1Ps are significant.
          There are    12 degrees of freedom in the 1st order CPHF.  IDoFFX=0 NUNeed=    12.
     11 vectors produced by pass  0 Test12= 1.22D-12 8.33D-09 XBig12= 1.00D+00 7.19D-01.
 AX will form    11 AO Fock derivatives at one time.
     11 vectors produced by pass  1 Test12= 1.22D-12 8.33D-09 XBig12= 5.94D-01 3.06D-01.
     11 vectors produced by pass  2 Test12= 1.22D-12 8.33D-09 XBig12= 4.47D-01 2.07D-01.
     11 vectors produced by pass  3 Test12= 1.22D-12 8.33D-09 XBig12= 1.97D-01 1.92D-01.
     11 vectors produced by pass  4 Test12= 1.22D-12 8.33D-09 XBig12= 6.96D-02 7.57D-02.
     11 vectors produced by pass  5 Test12= 1.22D-12 8.33D-09 XBig12= 2.35D-02 3.41D-02.
     11 vectors produced by pass  6 Test12= 1.22D-12 8.33D-09 XBig12= 7.05D-03 2.35D-02.
     11 vectors produced by pass  7 Test12= 1.22D-12 8.33D-09 XBig12= 1.52D-03 7.85D-03.
     11 vectors produced by pass  8 Test12= 1.22D-12 8.33D-09 XBig12= 3.83D-04 4.35D-03.
     11 vectors produced by pass  9 Test12= 1.22D-12 8.33D-09 XBig12= 6.29D-05 1.80D-03.
     11 vectors produced by pass 10 Test12= 1.22D-12 8.33D-09 XBig12= 6.69D-06 4.97D-04.
     11 vectors produced by pass 11 Test12= 1.22D-12 8.33D-09 XBig12= 5.95D-07 1.32D-04.
     11 vectors produced by pass 12 Test12= 1.22D-12 8.33D-09 XBig12= 6.03D-08 3.48D-05.
     11 vectors produced by pass 13 Test12= 1.22D-12 8.33D-09 XBig12= 6.36D-09 1.47D-05.
     11 vectors produced by pass 14 Test12= 1.22D-12 8.33D-09 XBig12= 5.05D-10 4.42D-06.
     11 vectors produced by pass 15 Test12= 1.22D-12 8.33D-09 XBig12= 3.65D-11 1.12D-06.
     11 vectors produced by pass 16 Test12= 1.22D-12 8.33D-09 XBig12= 2.23D-12 2.17D-07.
      9 vectors produced by pass 17 Test12= 1.22D-12 8.33D-09 XBig12= 1.77D-13 5.50D-08.
      5 vectors produced by pass 18 Test12= 1.22D-12 8.33D-09 XBig12= 1.54D-13 5.03D-08.
      1 vectors produced by pass 19 Test12= 1.22D-12 8.33D-09 XBig12= 1.30D-13 1.99D-08.
 InvSVY:  IOpt=1 It=  1 EMax= 3.98D-13
 Solved reduced A of dimension   202 with    12 vectors.
 Isotropic polarizability for W=    0.090224     1039.61 Bohr**3.
 Dipole-magnetic dipole polarizability for W=    0.090224:
                 1             2             3 
      1   0.476882D+03 -0.196658D+04 -0.291429D+03
      2   0.223187D+04 -0.192858D+03 -0.371992D+03
      3  -0.805927D+03 -0.920292D+03 -0.180526D+03
 DQ contribution to OR G for W=    0.090224:
                 1             2             3 
      1   0.101362D+04 -0.313059D+04  0.937599D+03
      2   0.375988D+04 -0.110198D+04  0.263107D+04
      3   0.639725D+03 -0.283128D+04  0.883584D+02
 Optical Rotation G' tensor for W=    0.090224:
                 1             2             3 
      1   0.667122D+02  0.123398D+02  0.471505D+03
      2   0.123398D+02 -0.127316D+03  0.298045D+03
      3   0.471505D+03  0.298045D+03  0.164101D+03
 OR G Eigenvalues:  -478.7117   -77.3651   659.5746  Iso=   -34.4993
 Eigenvectors:
   (1)  -0.547716  -0.529919   0.647452
   (2)  -0.584055   0.796262   0.157630
   (3)   0.599072   0.291811   0.745627
 w=    0.090224 a.u., Optical Rotation Beta=    -34.4993 au.
 Molar Mass =    624.2063 grams/mole, [Alpha] ( 5050.0 A) =    -2909.02 deg.
 End of Minotr F.D. properties on file   721 Mask=       B NFrqRd=     1 NDeriv=     1 ND12= 1 LenFil=      39:
 Frequencies=    0.090224
 Property number 1 -- Alpha(-w,w) frequency  1    0.090224:
                 1             2             3 
      1   0.147232D+04 -0.178607D+03 -0.164951D+03
      2  -0.178607D+03  0.140083D+04  0.109697D+03
      3  -0.164951D+03  0.109697D+03  0.245666D+03
 Property number 2 -- FD Optical Rotation Tensor frequency  1    0.090224:
                 1             2             3 
      1   0.476882D+03 -0.196658D+04 -0.291429D+03
      2   0.223187D+04 -0.192858D+03 -0.371992D+03
      3  -0.805927D+03 -0.920292D+03 -0.180526D+03
 Property number 4 -- D-Q polarizability frequency  1    0.090224:
                 1             2             3 
      1   0.337783D+04 -0.813353D+03 -0.357182D+03
      2  -0.126069D+04  0.357737D+03  0.166782D+03
      3  -0.211714D+04  0.455616D+03  0.190401D+03
      4  -0.173629D+03  0.157059D+04  0.785637D+02
      5  -0.411706D+04  0.109218D+04  0.513934D+03
      6   0.118054D+04 -0.296381D+04 -0.481983D+03
 End of Minotr F.D. properties file   722 does not exist.
 End of Minotr F.D. properties file   788 does not exist.
   1 Symmetry operations used in ECPInt.
 ECPInt:  NShTT=   39340 NPrTT=  159940 LenC2=   35257 LenP2D=   91148.
 LDataN:  DoStor=T MaxTD1= 5 Len=  102
 Symmetrizing basis deriv contribution to polar:
 IMax=3 JMax=2 DiffMx= 0.00D+00
 G2DrvN: will do    51 centers at a time, making    1 passes.
 PxScal for G2LodP:  IOpCl= 0 ISclPx=1 IMOff=     1 NMtTot=    25 NTT=  195000 ScalPx= 9.12D+01
 Calling FoFCou, ICntrl=  3107 FMM=F I1Cent=   0 AccDes= 0.00D+00.
 End of G2Drv F.D. properties on file   721 Mask=       B NFrqRd=     1 NDeriv=     1 ND12= 1 LenFil=      39:
 Frequencies=    0.090224
 Property number 1 -- Alpha(-w,w) frequency  1    0.090224:
                 1             2             3 
      1   0.147232D+04 -0.178607D+03 -0.164951D+03
      2  -0.178607D+03  0.140083D+04  0.109697D+03
      3  -0.164951D+03  0.109697D+03  0.245666D+03
 Property number 2 -- FD Optical Rotation Tensor frequency  1    0.090224:
                 1             2             3 
      1   0.476882D+03 -0.196658D+04 -0.291429D+03
      2   0.223187D+04 -0.192858D+03 -0.371992D+03
      3  -0.805927D+03 -0.920292D+03 -0.180526D+03
 Property number 4 -- D-Q polarizability frequency  1    0.090224:
                 1             2             3 
      1   0.337783D+04 -0.813353D+03 -0.357182D+03
      2  -0.126069D+04  0.357737D+03  0.166782D+03
      3  -0.211714D+04  0.455616D+03  0.190401D+03
      4  -0.173629D+03  0.157059D+04  0.785637D+02
      5  -0.411706D+04  0.109218D+04  0.513934D+03
      6   0.118054D+04 -0.296381D+04 -0.481983D+03
 End of G2Drv F.D. properties on file   722 Mask=       B NFrqRd=     1 NDeriv=   150 ND12= 1 LenFil=    5403:
 Frequencies=    0.090224
 Property number 1 -- Alpha(-w,w) derivatives, frequency  1    0.090224:
                 1             2             3             4             5 
      1   0.442399D+04 -0.172079D+04 -0.387590D+03 -0.208650D+03  0.190647D+02
      2  -0.172079D+04 -0.130577D+03  0.482678D+02  0.190647D+02 -0.113431D+03
      3  -0.387590D+03  0.482678D+02  0.367557D+02 -0.115527D+03  0.106627D+03
                 6             7             8             9            10 
      1  -0.115527D+03  0.113872D+04 -0.608459D+03 -0.721456D+02 -0.276957D+04
      2   0.106627D+03 -0.608459D+03  0.497283D+02  0.516795D+02  0.842151D+03
      3   0.470686D+02 -0.721456D+02  0.516795D+02  0.455833D+01  0.165751D+03
                11            12            13            14            15 
      1   0.842151D+03  0.165751D+03  0.323951D+04 -0.132114D+04 -0.301877D+03
      2   0.139607D+03  0.733090D+02 -0.132114D+04  0.313382D+03  0.795592D+02
      3   0.733090D+02  0.417925D+01 -0.301877D+03  0.795592D+02  0.365278D+02
                16            17            18            19            20 
      1   0.151180D+03  0.145544D+03 -0.195749D+02 -0.171912D+04  0.898391D+03
      2   0.145544D+03 -0.103459D+03 -0.294925D+02  0.898391D+03  0.977000D+02
      3  -0.195749D+02 -0.294925D+02 -0.116193D+02  0.219308D+03 -0.765296D+02
                21            22            23            24            25 
      1   0.219308D+03 -0.278434D+04  0.110427D+04  0.116035D+03  0.119651D+03
      2  -0.765296D+02  0.110427D+04 -0.374210D+03 -0.182031D+02 -0.728100D+02
      3  -0.461577D+02  0.116035D+03 -0.182031D+02 -0.385591D+01  0.350922D+02
                26            27            28            29            30 
      1  -0.728100D+02  0.350922D+02  0.236588D+04 -0.857229D+03 -0.171074D+03
      2  -0.926743D+02 -0.606906D+02 -0.857229D+03  0.305490D+03  0.737836D+02
      3  -0.606906D+02 -0.920050D+01 -0.171074D+03  0.737836D+02  0.310257D+02
                31            32            33            34            35 
      1   0.241783D+04 -0.120183D+04 -0.184363D+03  0.141454D+04 -0.877917D+03
      2  -0.120183D+04  0.119541D+03  0.703855D+02 -0.877917D+03  0.416670D+03
      3  -0.184363D+03  0.703855D+02  0.305074D+02 -0.184598D+03  0.102624D+03
                36            37            38            39            40 
      1  -0.184598D+03 -0.346741D+04  0.138340D+04  0.343425D+03 -0.247932D+03
      2   0.102624D+03  0.138340D+04  0.240656D+03 -0.849457D+02 -0.192108D+02
      3   0.298465D+02  0.343425D+03 -0.849457D+02 -0.595559D+02  0.728628D+02
                41            42            43            44            45 
      1  -0.192108D+02  0.728628D+02 -0.196126D+03  0.886506D+01 -0.311742D+01
      2   0.157942D+03 -0.132506D+02  0.886506D+01  0.729163D+02  0.236773D+02
      3  -0.132506D+02 -0.121431D+02 -0.311742D+01  0.236773D+02  0.242075D+00
                46            47            48            49            50 
      1   0.185404D+04 -0.566033D+03 -0.766223D+02 -0.312114D+04  0.119875D+04
      2  -0.566033D+03 -0.177967D+03  0.130190D+02  0.119875D+04 -0.245752D+03
      3  -0.766223D+02  0.130190D+02  0.216573D+01  0.306623D+03 -0.624238D+02
                51            52            53            54            55 
      1   0.306623D+03 -0.701838D+03  0.329993D+03  0.149940D+03  0.120501D+04
      2  -0.624238D+02  0.329993D+03 -0.286013D+03 -0.625524D+02 -0.790701D+03
      3  -0.366113D+02  0.149940D+03 -0.625524D+02 -0.164499D+02 -0.184899D+03
                56            57            58            59            60 
      1  -0.790701D+03 -0.184899D+03  0.264037D+04 -0.107998D+04 -0.182514D+03
      2  -0.211866D+03  0.957966D+02 -0.107998D+04  0.442545D+03  0.833050D+02
      3   0.957966D+02  0.357145D+02 -0.182514D+03  0.833050D+02  0.234549D+02
                61            62            63            64            65 
      1   0.144275D+04 -0.386644D+03 -0.138811D+03 -0.268834D+04  0.116641D+04
      2  -0.386644D+03 -0.207749D+03 -0.190019D+02  0.116641D+04 -0.599471D+03
      3  -0.138811D+03 -0.190019D+02 -0.806346D+01  0.237945D+03 -0.127950D+03
                66            67            68            69            70 
      1   0.237945D+03 -0.252298D+04  0.113877D+04  0.261836D+03  0.272062D+03
      2  -0.127950D+03  0.113877D+04  0.510924D+02 -0.369362D+02 -0.175663D+03
      3  -0.385353D+02  0.261836D+03 -0.369362D+02 -0.235303D+02 -0.188011D+02
                71            72            73            74            75 
      1  -0.175663D+03 -0.188011D+02 -0.120310D+04  0.114911D+04  0.294572D+03
      2   0.305603D+02  0.407743D+02  0.114911D+04 -0.802299D+03 -0.289929D+03
      3   0.407743D+02  0.105014D+02  0.294572D+03 -0.289929D+03 -0.771073D+02
                76            77            78            79            80 
      1   0.424203D+03 -0.102728D+04 -0.185874D+03 -0.728971D+03  0.402369D+03
      2  -0.102728D+04  0.559066D+03  0.290048D+03  0.402369D+03 -0.150231D+03
      3  -0.185874D+03  0.290048D+03  0.741277D+02  0.780857D+02 -0.916076D+02
                81            82            83            84            85 
      1   0.780857D+02 -0.495158D+03 -0.217439D+03  0.109259D+02 -0.154913D+03
      2  -0.916076D+02 -0.217439D+03 -0.584488D+02  0.162672D+02  0.656576D+03
      3  -0.278862D+02  0.109259D+02  0.162672D+02  0.156874D+02  0.797361D+02
                86            87            88            89            90 
      1   0.656576D+03  0.797361D+02 -0.271656D+03  0.155073D+03  0.165254D+02
      2  -0.553231D+03 -0.176092D+03  0.155073D+03 -0.830132D+02 -0.924929D+02
      3  -0.176092D+03 -0.314969D+02  0.165254D+02 -0.924929D+02 -0.252968D+02
                91            92            93            94            95 
      1   0.455140D+03 -0.857584D+03 -0.162540D+03 -0.264967D+03 -0.356673D+02
      2  -0.857584D+03  0.198524D+03  0.163090D+03 -0.356673D+02 -0.555832D+03
      3  -0.162540D+03  0.163090D+03  0.465093D+02  0.305596D+02 -0.796878D+01
                96            97            98            99           100 
      1   0.305596D+02 -0.189687D+03 -0.449942D+02  0.435565D+02  0.471281D+03
      2  -0.796878D+01 -0.449942D+02 -0.118380D+02 -0.431842D+02  0.371902D+03
      3   0.449898D+01  0.435565D+02 -0.431842D+02 -0.262012D+02 -0.437460D+01
               101           102           103           104           105 
      1   0.371902D+03 -0.437460D+01 -0.121669D+04  0.528991D+03  0.184109D+03
      2  -0.373124D+03 -0.155971D+03  0.528991D+03 -0.489240D+03 -0.113809D+03
      3  -0.155971D+03 -0.179877D+02  0.184109D+03 -0.113809D+03 -0.271859D+02
               106           107           108           109           110 
      1  -0.262894D+03  0.147386D+03  0.104031D+03  0.214854D+04 -0.135166D+04
      2   0.147386D+03 -0.126919D+03 -0.530965D+02 -0.135166D+04  0.881842D+03
      3   0.104031D+03 -0.530965D+02 -0.350313D+02 -0.365824D+03  0.281972D+03
               111           112           113           114           115 
      1  -0.365824D+03 -0.891718D+03  0.133058D+04  0.265666D+03 -0.411730D+03
      2   0.281972D+03  0.133058D+04 -0.754206D+03 -0.314329D+03  0.356043D+03
      3   0.849017D+02  0.265666D+03 -0.314329D+03 -0.880357D+02  0.143575D+03
               116           117           118           119           120 
      1   0.356043D+03  0.143575D+03  0.347303D+03  0.163330D+03 -0.217120D+02
      2  -0.213553D+03 -0.457457D+02  0.163330D+03  0.101876D+03 -0.821825D+01
      3  -0.457457D+02 -0.340768D+02 -0.217120D+02 -0.821825D+01 -0.166704D+01
               121           122           123           124           125 
      1   0.103799D+04 -0.841972D+03 -0.178643D+03 -0.111948D+04  0.547670D+03
      2  -0.841972D+03  0.517407D+03  0.158460D+03  0.547670D+03 -0.265236D+03
      3  -0.178643D+03  0.158460D+03  0.393730D+02  0.177329D+03 -0.101039D+02
               126           127           128           129           130 
      1   0.177329D+03  0.313298D+03  0.573733D+03  0.946074D+02  0.116135D+03
      2  -0.101039D+02  0.573733D+03 -0.152366D+03 -0.141668D+03  0.116648D+03
      3  -0.191163D+02  0.946074D+02 -0.141668D+03 -0.443144D+02  0.526400D+02
               131           132           133           134           135 
      1   0.116648D+03  0.526400D+02 -0.651462D+03  0.164861D+03  0.512529D+02
      2   0.529168D+03 -0.326932D+02  0.164861D+03 -0.556828D+02  0.624681D+02
      3  -0.326932D+02 -0.298795D+02  0.512529D+02  0.624681D+02  0.951345D+01
               136           137           138           139           140 
      1  -0.130098D+04 -0.342939D+03  0.163119D+03  0.879141D+03 -0.421312D+03
      2  -0.342939D+03  0.629676D+03  0.182794D+03 -0.421312D+03  0.346179D+03
      3   0.163119D+03  0.182794D+03  0.414901D+01 -0.159026D+03  0.910750D+02
               141           142           143           144           145 
      1  -0.159026D+03 -0.629140D+03  0.939004D+02  0.169417D+01  0.250641D+03
      2   0.910750D+02  0.939004D+02  0.629325D+02  0.595036D+02 -0.305813D+03
      3   0.221350D+02  0.169417D+01  0.595036D+02  0.154315D+02 -0.414387D+02
               146           147           148           149           150 
      1  -0.305813D+03 -0.414387D+02  0.678963D+03 -0.109585D+04 -0.248583D+03
      2  -0.206337D+02  0.588951D+02 -0.109585D+04  0.759195D+03  0.291139D+03
      3   0.588951D+02  0.865538D+01 -0.248583D+03  0.291139D+03  0.797823D+02
               151           152           153           154           155 
      1   0.367497D+03 -0.878367D+02 -0.122095D+03  0.440075D+03 -0.432863D+03
      2  -0.878367D+02  0.137093D+03  0.491104D+02 -0.432863D+03  0.330852D+03
      3  -0.122095D+03  0.491104D+02  0.376813D+02 -0.133650D+03  0.109527D+03
               156           157           158           159           160 
      1  -0.133650D+03 -0.802392D+03  0.430977D+03  0.146125D+03  0.956211D+03
      2   0.109527D+03  0.430977D+03 -0.941554D+02 -0.605473D+02 -0.629780D+03
      3   0.362103D+02  0.146125D+03 -0.605473D+02 -0.242174D+02 -0.228415D+03
               161           162           163           164           165 
      1  -0.629780D+03 -0.228415D+03  0.604049D+03 -0.753053D+03 -0.165303D+03
      2   0.521073D+03  0.811891D+02 -0.753053D+03  0.801501D+02  0.113866D+03
      3   0.811891D+02  0.403045D+02 -0.165303D+03  0.113866D+03  0.434679D+02
               166           167           168           169           170 
      1  -0.128871D+03  0.268094D+03  0.544176D+02  0.696296D+03 -0.340393D+03
      2   0.268094D+03 -0.140619D+03 -0.772438D+02 -0.340393D+03  0.194460D+03
      3   0.544176D+02 -0.772438D+02 -0.214967D+02 -0.123494D+03 -0.246983D+02
               171           172           173           174           175 
      1  -0.123494D+03 -0.815471D+03  0.452680D+03  0.132334D+03  0.331849D+03
      2  -0.246983D+02  0.452680D+03 -0.370897D+02 -0.720982D+02  0.103446D+03
      3   0.167090D+02  0.132334D+03 -0.720982D+02 -0.224482D+02 -0.291449D+01
               176           177           178           179           180 
      1   0.103446D+03 -0.291449D+01  0.783116D+03 -0.469436D+02 -0.415419D+02
      2  -0.322351D+02 -0.573288D+02 -0.469436D+02  0.128536D+03 -0.633154D+02
      3  -0.573288D+02 -0.102682D+02 -0.415419D+02 -0.633154D+02 -0.101402D+02
               181           182           183           184           185 
      1   0.690642D+02  0.463955D+03 -0.191101D+02  0.256232D+03  0.795454D+03
      2   0.463955D+03 -0.374824D+03 -0.130689D+03  0.795454D+03 -0.622048D+03
      3  -0.191101D+02 -0.130689D+03 -0.185101D+02  0.119253D+03 -0.288409D+03
               186           187           188           189           190 
      1   0.119253D+03  0.798231D+03 -0.234888D+03 -0.304535D+02 -0.274737D+02
      2  -0.288409D+03 -0.234888D+03 -0.399672D+02 -0.223814D+02  0.248269D+03
      3  -0.685847D+02 -0.304535D+02 -0.223814D+02  0.638853D+01  0.364358D+02
               191           192           193           194           195 
      1   0.248269D+03  0.364358D+02  0.223855D+03 -0.341625D+03 -0.986300D+02
      2  -0.285889D+03 -0.108417D+03 -0.341625D+03  0.533841D+02  0.294599D+02
      3  -0.108417D+03 -0.315446D+02 -0.986300D+02  0.294599D+02  0.181780D+02
               196           197           198           199           200 
      1   0.363585D+03 -0.343530D+03 -0.591057D+02 -0.823892D+03  0.803957D+03
      2  -0.343530D+03  0.399320D+03  0.151446D+03  0.803957D+03 -0.603260D+01
      3  -0.591057D+02  0.151446D+03  0.416026D+02  0.158521D+03 -0.137667D+03
               201           202           203           204           205 
      1   0.158521D+03 -0.254605D+03 -0.955152D+02 -0.241020D+01  0.777379D+03
      2  -0.137667D+03 -0.955152D+02  0.927595D+02  0.172845D+02 -0.222218D+03
      3  -0.409433D+02 -0.241020D+01  0.172845D+02  0.744013D+00 -0.826608D+02
               206           207           208           209           210 
      1  -0.222218D+03 -0.826608D+02  0.422826D+03 -0.174626D+03 -0.591273D+02
      2   0.799093D+02  0.850776D+02 -0.174626D+03 -0.101632D+03  0.208859D+02
      3   0.850776D+02  0.323363D+02 -0.591273D+02  0.208859D+02  0.911815D+01
               211           212           213           214           215 
      1   0.114966D+03 -0.167915D+03 -0.749734D+01  0.176302D+03  0.574279D+02
      2  -0.167915D+03  0.526558D+02  0.261745D+02  0.574279D+02  0.769862D+02
      3  -0.749734D+01  0.261745D+02 -0.497570D+00 -0.869207D+02  0.758150D+02
               216           217           218           219           220 
      1  -0.869207D+02  0.316784D+04 -0.131364D+04 -0.618214D+03 -0.158450D+04
      2   0.758150D+02 -0.131364D+04  0.709051D+03  0.280441D+03  0.701999D+03
      3   0.366122D+02 -0.618214D+03  0.280441D+03  0.150995D+03  0.357789D+03
               221           222           223           224           225 
      1   0.701999D+03  0.357789D+03 -0.869628D+03  0.243849D+03  0.100394D+03
      2  -0.330664D+03 -0.158107D+03  0.243849D+03 -0.825981D+02 -0.979616D+01
      3  -0.158107D+03 -0.654892D+02  0.100394D+03 -0.979616D+01 -0.100997D+02
               226           227           228           229           230 
      1  -0.110177D+04  0.375500D+03  0.165180D+03 -0.120726D+04  0.470753D+03
      2   0.375500D+03 -0.139730D+03 -0.494581D+02  0.470753D+03 -0.202016D+03
      3   0.165180D+03 -0.494581D+02 -0.197144D+02  0.147773D+03 -0.564070D+02
               231           232           233           234           235 
      1   0.147773D+03  0.582800D+03 -0.209748D+03 -0.132008D+03 -0.713603D+02
      2  -0.564070D+02 -0.209748D+03  0.898827D+02  0.424149D+02  0.130226D+02
      3  -0.250013D+02 -0.132008D+03  0.424149D+02  0.392590D+02 -0.280688D+02
               236           237           238           239           240 
      1   0.130226D+02 -0.280688D+02 -0.277170D+03  0.168043D+03  0.120132D+03
      2  -0.556296D+02  0.132164D+02  0.168043D+03 -0.108676D+03 -0.702256D+02
      3   0.132164D+02  0.204498D+00  0.120132D+03 -0.702256D+02 -0.357729D+02
               241           242           243           244           245 
      1  -0.254962D+03  0.178769D+03  0.839890D+02 -0.727703D+03  0.299453D+03
      2   0.178769D+03 -0.861751D+02 -0.569990D+02  0.299453D+03 -0.145437D+03
      3   0.839890D+02 -0.569990D+02 -0.340374D+02  0.147670D+03 -0.624638D+02
               246           247           248           249           250 
      1   0.147670D+03 -0.289304D+03  0.545416D+02 -0.558817D+02  0.238006D+01
      2  -0.624638D+02  0.545416D+02  0.569521D+01  0.479526D+02 -0.563486D+02
      3  -0.316236D+02 -0.558817D+02  0.479526D+02  0.241302D+02  0.293407D+02
               251           252           253           254           255 
      1  -0.563486D+02  0.293407D+02  0.459769D+03 -0.185057D+03 -0.882070D+00
      2   0.407532D+02  0.609519D+01 -0.185057D+03  0.140706D+03 -0.516470D+00
      3   0.609519D+01 -0.894793D+01 -0.882070D+00 -0.516470D+00 -0.234058D+02
               256           257           258           259           260 
      1   0.563849D+03 -0.261184D+03 -0.479004D+02 -0.928710D+02  0.895201D+02
      2  -0.261184D+03  0.128706D+03  0.214722D+02  0.895201D+02 -0.113485D+02
      3  -0.479004D+02  0.214722D+02  0.113204D+02 -0.239577D+02 -0.456500D+01
               261           262           263           264           265 
      1  -0.239577D+02 -0.437291D+03  0.162164D+03  0.221078D+02  0.190540D+04
      2  -0.456500D+01  0.162164D+03 -0.955375D+02 -0.365870D+00 -0.867250D+03
      3   0.399729D+00  0.221078D+02 -0.365870D+00  0.126236D+02 -0.431544D+03
               266           267           268           269           270 
      1  -0.867250D+03 -0.431544D+03 -0.140595D+03  0.671100D+02  0.361695D+02
      2   0.423755D+03  0.198837D+03  0.671100D+02  0.180651D+03  0.911559D+01
      3   0.198837D+03  0.945816D+02  0.361695D+02  0.911559D+01 -0.505494D+01
               271           272           273           274           275 
      1  -0.302821D+04  0.113884D+04  0.694909D+03 -0.104507D+04  0.331109D+03
      2   0.113884D+04 -0.620799D+03 -0.286676D+03  0.331109D+03  0.639027D+02
      3   0.694909D+03 -0.286676D+03 -0.170302D+03  0.549258D+03 -0.201967D+03
               276           277           278           279           280 
      1   0.549258D+03  0.201035D+04 -0.770508D+03 -0.243340D+03 -0.711090D+04
      2  -0.201967D+03 -0.770508D+03  0.229819D+03  0.956703D+02  0.303354D+04
      3  -0.837892D+02 -0.243340D+03  0.956703D+02  0.108659D+02  0.326498D+03
               281           282           283           284           285 
      1   0.303354D+04  0.326498D+03  0.551727D+03 -0.188985D+03 -0.141628D+03
      2  -0.133883D+04 -0.163320D+03 -0.188985D+03 -0.178734D+03  0.377589D+02
      3  -0.163320D+03  0.129361D+02 -0.141628D+03  0.377589D+02 -0.266276D+02
               286           287           288           289           290 
      1  -0.182897D+04  0.763562D+03  0.141815D+03  0.134668D+03 -0.377761D+02
      2   0.763562D+03 -0.344209D+03 -0.626370D+02 -0.377761D+02  0.328827D+02
      3   0.141815D+03 -0.626370D+02  0.272179D+01 -0.270050D+02  0.872786D+01
               291           292           293           294           295 
      1  -0.270050D+02  0.377038D+03 -0.182188D+03 -0.293648D+02  0.190913D+04
      2   0.872786D+01 -0.182188D+03  0.799488D+02  0.259325D+02 -0.758909D+03
      3   0.107803D+02 -0.293648D+02  0.259325D+02  0.227686D+01 -0.259547D+03
               296           297           298           299           300 
      1  -0.758909D+03 -0.259547D+03  0.405465D+03 -0.170860D+03 -0.394413D+02
      2   0.356392D+03  0.950506D+02 -0.170860D+03  0.276581D+02  0.876443D+01
      3   0.950506D+02  0.447298D+02 -0.394413D+02  0.876443D+01  0.912649D-01
               301           302           303           304           305 
      1   0.421487D+03 -0.141275D+03 -0.864374D+02 -0.105254D+04  0.375458D+03
      2  -0.141275D+03  0.553388D+02  0.301208D+02  0.375458D+03 -0.126042D+03
      3  -0.864374D+02  0.301208D+02  0.188368D+02  0.186270D+03 -0.768474D+02
               306           307           308           309           310 
      1   0.186270D+03 -0.815927D+04  0.319304D+04  0.399056D+03  0.395662D+04
      2  -0.768474D+02  0.319304D+04 -0.130034D+04 -0.164666D+03 -0.157721D+04
      3  -0.309211D+02  0.399056D+03 -0.164666D+03  0.251691D+02 -0.793702D+03
               311           312           313           314           315 
      1  -0.157721D+04 -0.793702D+03 -0.186171D+04  0.847434D+03  0.237898D+03
      2   0.625747D+03  0.311680D+03  0.847434D+03 -0.291737D+03 -0.960628D+02
      3   0.311680D+03  0.130716D+03  0.237898D+03 -0.960628D+02 -0.144276D+02
               316           317           318           319           320 
      1   0.111551D+05 -0.452040D+04 -0.809115D+03 -0.190132D+04  0.865906D+03
      2  -0.452040D+04  0.193074D+04  0.353340D+03  0.865906D+03 -0.755025D+02
      3  -0.809115D+03  0.353340D+03  0.324651D+02  0.359633D+03 -0.116449D+03
               321           322           323           324           325 
      1   0.359633D+03 -0.712924D+03  0.164313D+03  0.181986D+02  0.290237D+04
      2  -0.116449D+03  0.164313D+03 -0.254087D+03 -0.346475D+02 -0.107652D+04
      3   0.175676D+01  0.181986D+02 -0.346475D+02 -0.183879D+02 -0.511948D+03
               326           327           328           329           330 
      1  -0.107652D+04 -0.511948D+03  0.717587D+04 -0.280404D+04 -0.866977D+03
      2   0.455047D+03  0.201454D+03 -0.280404D+04  0.828161D+03  0.314454D+03
      3   0.201454D+03  0.821607D+02 -0.866977D+03  0.314454D+03  0.462857D+02
               331           332           333           334           335 
      1  -0.133058D+04  0.444787D+03  0.167723D+03  0.228507D+04 -0.108111D+04
      2   0.444787D+03 -0.717375D+02 -0.406568D+02 -0.108111D+04  0.693674D+03
      3   0.167723D+03 -0.406568D+02 -0.639799D+01  0.238421D+03 -0.526445D+02
               336           337           338           339           340 
      1   0.238421D+03 -0.753641D+04  0.298947D+04  0.813161D+03 -0.414234D+03
      2  -0.526445D+02  0.298947D+04 -0.115322D+04 -0.322520D+03  0.208490D+03
      3  -0.395236D+02  0.813161D+03 -0.322520D+03 -0.775741D+02  0.359889D+02
               341           342           343           344           345 
      1   0.208490D+03  0.359889D+02  0.152632D+02 -0.326077D+01 -0.426088D+01
      2  -0.123603D+03 -0.303496D+02 -0.326077D+01  0.494457D+01  0.131724D+01
      3  -0.303496D+02 -0.145200D+02 -0.426088D+01  0.131724D+01  0.129538D+01
               346           347           348           349           350 
      1   0.110664D+02 -0.216136D+01 -0.318448D+01 -0.104065D+02  0.123897D+02
      2  -0.216136D+01  0.758521D+01  0.849717D+00  0.123897D+02 -0.138702D+02
      3  -0.318448D+01  0.849717D+00  0.129223D+01  0.276475D+01 -0.349265D+01
               351           352           353           354           355 
      1   0.276475D+01  0.349526D+02 -0.120991D+02 -0.662879D+01 -0.794172D+00
      2  -0.349265D+01 -0.120991D+02  0.680146D+01  0.246032D+01  0.264127D+01
      3  -0.115706D+01 -0.662879D+01  0.246032D+01  0.168255D+01 -0.918763D-01
               356           357           358           359           360 
      1   0.264127D+01 -0.918763D-01 -0.616271D+01  0.320723D+01  0.190426D+01
      2  -0.376887D+00 -0.236170D+00  0.320723D+01 -0.157349D+01 -0.676763D+00
      3  -0.236170D+00  0.111127D-01  0.190426D+01 -0.676763D+00 -0.265488D+00
               361           362           363           364           365 
      1   0.112837D+02 -0.260123D+01 -0.596609D+00 -0.530635D+01  0.436729D+01
      2  -0.260123D+01  0.462955D+01 -0.446425D-03  0.436729D+01 -0.570683D+01
      3  -0.596609D+00 -0.446425D-03  0.178529D+00  0.362939D+00 -0.942103D+00
               366           367           368           369           370 
      1   0.362939D+00  0.322347D+02 -0.238328D+02 -0.791730D+01 -0.107528D+02
      2  -0.942103D+00 -0.238328D+02  0.467860D+01  0.499503D+01  0.885375D+01
      3  -0.784086D+00 -0.791730D+01  0.499503D+01  0.264287D+01  0.608602D+01
               371           372           373           374           375 
      1   0.885375D+01  0.608602D+01 -0.100552D+02  0.166265D+02  0.785986D+01
      2   0.739897D+01 -0.177529D+01  0.166265D+02 -0.890471D+01 -0.584594D+01
      3  -0.177529D+01 -0.250871D+01  0.785986D+01 -0.584594D+01 -0.298173D+01
               376           377           378           379           380 
      1   0.750045D+02 -0.502383D+02 -0.195636D+02  0.113801D+03 -0.443027D+02
      2  -0.502383D+02  0.635728D+01  0.937383D+01 -0.443027D+02  0.200192D+02
      3  -0.195636D+02  0.937383D+01  0.406494D+01 -0.899343D+01  0.480899D+01
               381           382           383           384           385 
      1  -0.899343D+01 -0.166100D+03  0.753454D+02  0.140055D+02 -0.358164D+03
      2   0.480899D+01  0.753454D+02 -0.395086D+02 -0.839884D+01  0.150022D+03
      3   0.361463D+00  0.140055D+02 -0.839884D+01 -0.122770D+01  0.406009D+02
               386           387           388           389           390 
      1   0.150022D+03  0.406009D+02  0.861754D+02 -0.242051D+02 -0.204362D+02
      2  -0.660819D+02 -0.168873D+02 -0.242051D+02 -0.433259D+01  0.558742D+01
      3  -0.168873D+02 -0.505878D+01 -0.204362D+02  0.558742D+01  0.115568D+01
               391           392           393           394           395 
      1  -0.415715D+03  0.174831D+03  0.335347D+02  0.300968D+03 -0.138943D+03
      2   0.174831D+03 -0.757604D+02 -0.135230D+02 -0.138943D+03  0.751920D+02
      3   0.335347D+02 -0.135230D+02 -0.394451D+01 -0.675933D+01  0.124642D+02
               396           397           398           399           400 
      1  -0.675933D+01 -0.236630D+02  0.241409D+02  0.114230D+01  0.181672D+02
      2   0.124642D+02  0.241409D+02 -0.773435D+01 -0.273006D+01 -0.416139D+00
      3  -0.312481D+01  0.114230D+01 -0.273006D+01 -0.172059D+00 -0.249368D+01
               401           402           403           404           405 
      1  -0.416139D+00 -0.249368D+01  0.103102D+03 -0.551709D+02 -0.129006D+02
      2   0.890816D+01 -0.231748D+01 -0.551709D+02  0.211487D+02  0.102606D+02
      3  -0.231748D+01  0.210569D+00 -0.129006D+02  0.102606D+02  0.136017D+01
               406           407           408           409           410 
      1  -0.552590D+02  0.410551D+02  0.756263D+01 -0.363742D+03  0.983333D+02
      2   0.410551D+02  0.201703D+02 -0.598518D+01  0.983333D+02 -0.439269D+02
      3   0.756263D+01 -0.598518D+01 -0.346064D+01  0.469261D+02 -0.128684D+02
               411           412           413           414           415 
      1   0.469261D+02 -0.845159D+02  0.390137D+02 -0.315636D+00  0.130523D+02
      2  -0.128684D+02  0.390137D+02 -0.175627D+02 -0.308636D+01 -0.177353D+01
      3  -0.999615D+01 -0.315636D+00 -0.308636D+01 -0.434689D+00 -0.713329D-01
               416           417           418           419           420 
      1  -0.177353D+01 -0.713329D-01 -0.304098D+03  0.150828D+03  0.372559D+02
      2   0.188837D+01 -0.316773D+01  0.150828D+03 -0.505391D+02 -0.188152D+02
      3  -0.316773D+01 -0.145215D+01  0.372559D+02 -0.188152D+02 -0.360241D+01
               421           422           423           424           425 
      1  -0.611625D+03  0.224315D+03  0.819875D+02  0.400693D+01 -0.468408D+01
      2   0.224315D+03 -0.785703D+02 -0.289189D+02 -0.468408D+01 -0.792290D+01
      3   0.819875D+02 -0.289189D+02 -0.111306D+02 -0.775745D+01  0.312951D-01
               426           427           428           429           430 
      1  -0.775745D+01  0.239593D+02  0.927744D+01 -0.174437D+02  0.202017D+03
      2   0.312951D-01  0.927744D+01 -0.222756D+02  0.186789D+01 -0.635439D+02
      3   0.979580D+00 -0.174437D+02  0.186789D+01  0.330517D+01 -0.239159D+02
               431           432           433           434           435 
      1  -0.635439D+02 -0.239159D+02 -0.214025D+02 -0.136085D+01  0.324101D+01
      2   0.549426D+02  0.118023D+02 -0.136085D+01  0.436401D+01 -0.398892D+00
      3   0.118023D+02  0.108694D+01  0.324101D+01 -0.398892D+00 -0.649425D+00
               436           437           438           439           440 
      1   0.264017D+02 -0.719484D+01 -0.582965D+01  0.202332D+03 -0.592278D+02
      2  -0.719484D+01 -0.938865D-02  0.272181D+01 -0.592278D+02  0.376100D+01
      3  -0.582965D+01  0.272181D+01  0.638454D+00 -0.104481D+02 -0.180479D+01
               441           442           443           444           445 
      1  -0.104481D+02 -0.101884D+03  0.434941D+02  0.786583D+01  0.313425D+03
      2  -0.180479D+01  0.434941D+02 -0.178347D+02 -0.337197D+01 -0.124487D+03
      3  -0.326799D+01  0.786583D+01 -0.337197D+01 -0.351046D-01 -0.272154D+02
               446           447           448           449           450 
      1  -0.124487D+03 -0.272154D+02 -0.849522D+02  0.371717D+02 -0.137183D+02
      2   0.487181D+02  0.106910D+02  0.371717D+02 -0.282322D+02  0.518377D+01
      3   0.106910D+02  0.283454D+01 -0.137183D+02  0.518377D+01  0.145712D+01
 Property number 2 -- FD Optical Rotation Tensor derivatives, frequency  1    0.090224:
                 1             2             3             4             5 
      1  -0.967047D+03  0.264384D+03  0.742690D+02  0.117131D+03 -0.514796D+02
      2  -0.978325D+03  0.399193D+03  0.905687D+02  0.312748D+02  0.860997D+01
      3  -0.801604D+03  0.268088D+03  0.841570D+02  0.273352D+03 -0.128115D+03
                 6             7             8             9            10 
      1   0.161454D+02 -0.268856D+03  0.758339D+02  0.187802D+02  0.618348D+03
      2   0.271154D+02 -0.290220D+03  0.152720D+03  0.225419D+02  0.602078D+03
      3  -0.300496D+02 -0.167564D+03  0.229935D+01  0.661067D+01  0.602419D+03
                11            12            13            14            15 
      1  -0.185366D+03 -0.299985D+02 -0.723406D+03  0.257725D+03  0.595141D+02
      2  -0.206795D+03 -0.407887D+02 -0.727297D+03  0.273901D+03  0.669013D+02
      3  -0.231613D+03 -0.550619D+02 -0.586298D+03  0.204459D+03  0.522641D+02
                16            17            18            19            20 
      1   0.707764D+01 -0.240225D+02  0.382239D+01  0.373182D+03 -0.821321D+02
      2  -0.474739D+02 -0.251025D+02  0.800053D+01  0.327661D+03 -0.211071D+03
      3  -0.150994D+02  0.200245D+02  0.162362D+02  0.199268D+03 -0.524943D+02
                21            22            23            24            25 
      1  -0.380785D+02  0.775314D+03 -0.288463D+03 -0.531620D+02 -0.787274D+02
      2  -0.442241D+02  0.632837D+03 -0.255128D+03 -0.313966D+02 -0.324757D+02
      3  -0.128606D+02  0.748574D+03 -0.295026D+03 -0.705570D+02 -0.954108D+02
                26            27            28            29            30 
      1   0.446567D+02 -0.569819D+01 -0.583319D+03  0.226154D+03  0.540504D+02
      2   0.229902D+02 -0.834671D+01 -0.520988D+03  0.189869D+03  0.371229D+02
      3   0.668152D+02  0.256146D+01 -0.535808D+03  0.202785D+03  0.608860D+02
                31            32            33            34            35 
      1  -0.634201D+03  0.167208D+03  0.472666D+02 -0.327822D+03  0.185063D+03
      2  -0.532486D+03  0.265101D+03  0.399082D+02 -0.287272D+03  0.183478D+03
      3  -0.580921D+03  0.198528D+03  0.514254D+02 -0.201092D+03  0.948294D+02
                36            37            38            39            40 
      1   0.393646D+02  0.762961D+03 -0.176131D+03 -0.695332D+02 -0.553400D+02
      2   0.396771D+02  0.751927D+03 -0.329583D+03 -0.725305D+02  0.634014D+02
      3   0.220627D+02  0.603554D+03 -0.103492D+03 -0.561035D+02 -0.963461D+02
                41            42            43            44            45 
      1   0.533161D+02  0.238898D+01 -0.110155D+01  0.268822D+02  0.983144D+01
      2  -0.642585D+01 -0.208056D+02  0.243566D+02 -0.167499D+01  0.117113D+01
      3   0.460542D+02  0.109325D+02 -0.191427D+02  0.321498D+02  0.133260D+02
                46            47            48            49            50 
      1  -0.439256D+03  0.943963D+02  0.355711D+02  0.668697D+03 -0.220072D+03
      2  -0.394687D+03  0.145549D+03  0.144914D+02  0.693074D+03 -0.258450D+03
      3  -0.362854D+03  0.897854D+02  0.425854D+02  0.514325D+03 -0.201616D+03
                51            52            53            54            55 
      1  -0.586146D+02  0.865015D+02 -0.699120D+02 -0.193739D+02 -0.293492D+03
      2  -0.662536D+02  0.148999D+03 -0.581860D+02 -0.332693D+02 -0.254725D+03
      3  -0.536051D+02  0.197702D+02 -0.401520D+02 -0.879482D+01 -0.212401D+03
                56            57            58            59            60 
      1   0.572487D+02  0.384149D+02 -0.698324D+03  0.273896D+03  0.651920D+02
      2   0.203509D+03  0.435276D+02 -0.604953D+03  0.259033D+03  0.453556D+02
      3  -0.415000D+02  0.247760D+02 -0.683791D+03  0.259160D+03  0.879052D+02
                61            62            63            64            65 
      1  -0.243301D+03  0.273962D+02  0.124744D+02  0.666055D+03 -0.306292D+03
      2  -0.337329D+03  0.843860D+02  0.314547D+02  0.601367D+03 -0.263789D+03
      3  -0.153802D+03 -0.224966D+01  0.757298D+01  0.571019D+03 -0.261389D+03
                66            67            68            69            70 
      1  -0.720679D+02  0.586555D+03 -0.114934D+03 -0.468101D+02 -0.118959D+03
      2  -0.520592D+02  0.566277D+03 -0.263041D+03 -0.614747D+02 -0.395096D+02
      3  -0.723255D+02  0.409829D+03 -0.222897D+02 -0.297973D+02 -0.179862D+03
                71            72            73            74            75 
      1   0.595793D+02  0.200907D+02  0.284451D+03 -0.238235D+03 -0.689552D+02
      2   0.350154D+02  0.687040D+00  0.241571D+03 -0.243894D+03 -0.560386D+02
      3   0.364649D+02  0.328637D+02  0.155194D+03 -0.125625D+03 -0.380323D+02
                76            77            78            79            80 
      1  -0.209747D+03  0.173437D+03  0.603896D+02  0.144654D+03 -0.425466D+02
      2  -0.599264D+02  0.271375D+03  0.396707D+02  0.143833D+03 -0.979838D+02
      3  -0.250227D+03  0.130712D+02  0.461658D+02  0.790785D+02 -0.232134D+02
                81            82            83            84            85 
      1  -0.258551D+02 -0.278753D+02  0.623905D+00  0.282997D+01  0.163551D+03
      2  -0.218383D+02  0.133883D+03  0.307620D+02 -0.483305D+01  0.104371D+02
      3  -0.226401D+02 -0.210434D+01 -0.143891D+02 -0.518285D+01  0.123110D+03
                86            87            88            89            90 
      1  -0.147534D+03 -0.425293D+02  0.401474D+02 -0.452955D+01 -0.923446D+01
      2  -0.144305D+03 -0.138642D+02  0.447904D+02 -0.513231D+02 -0.507774D+01
      3  -0.125264D+03 -0.379777D+02  0.493008D+02 -0.309471D+02 -0.187971D+02
                91            92            93            94            95 
      1  -0.187360D+03  0.633923D+02  0.347282D+02  0.290907D+02 -0.121422D+03
      2  -0.549667D+02  0.206739D+03  0.323450D+02  0.632606D+02  0.346692D+02
      3  -0.105825D+03  0.378611D+02  0.250052D+02  0.633895D+02 -0.769608D+02
                96            97            98            99           100 
      1  -0.101187D+02  0.118235D+01  0.164774D+02 -0.736594D+00  0.253905D+02
      2  -0.259172D+01  0.138007D+02  0.179618D+02 -0.377240D+01 -0.141626D+03
      3  -0.793559D+01  0.249060D+02 -0.852219D+01 -0.377529D+01 -0.115827D+03
               101           102           103           104           105 
      1  -0.811343D+02 -0.272397D+02  0.171928D+03 -0.107787D+03 -0.330376D+02
      2  -0.107594D+03  0.355802D+01  0.276609D+03 -0.111197D+03 -0.415545D+02
      3   0.662472D+02  0.905391D+01  0.759097D+02 -0.889623D+01 -0.163153D+01
               106           107           108           109           110 
      1   0.380955D+02 -0.305596D+02 -0.437543D+01 -0.429245D+03  0.269534D+03
      2   0.116824D+02 -0.269779D+02 -0.135887D+02 -0.431758D+03  0.290100D+03
      3   0.461839D+02 -0.335734D+02 -0.296760D+01 -0.628331D+02 -0.245197D+02
               111           112           113           114           115 
      1   0.776091D+02  0.328507D+03 -0.227719D+03 -0.731604D+02  0.126567D+03
      2   0.786825D+02  0.170798D+03 -0.339548D+03 -0.631338D+02  0.458136D+02
      3  -0.452420D+01  0.102631D+02  0.304024D+02  0.948386D+01  0.659140D+02
               116           117           118           119           120 
      1  -0.618302D+02 -0.146242D+02  0.185524D+02  0.100936D+02 -0.512194D+01
      2  -0.909806D+02 -0.221382D+02 -0.990158D+02 -0.135562D+02  0.169844D+02
      3  -0.276606D+02 -0.278456D+01  0.439490D+02  0.331845D+02 -0.570028D+01
               121           122           123           124           125 
      1  -0.302153D+03  0.190244D+03  0.526033D+02  0.218841D+03 -0.763784D+02
      2  -0.180362D+03  0.175667D+03  0.337138D+02  0.229475D+03 -0.151026D+03
      3  -0.149727D+03 -0.574308D+02  0.886433D+01  0.100044D+03 -0.357126D+02
               126           127           128           129           130 
      1  -0.162894D+02  0.477097D+02 -0.435439D+02 -0.268785D+02  0.392444D+01
      2  -0.377474D+02 -0.127002D+03 -0.127744D+03 -0.135234D+02 -0.203205D+02
      3  -0.758000D+01  0.168889D+01  0.175248D+03  0.175113D+02 -0.218327D+02
               131           132           133           134           135 
      1   0.843700D+02 -0.141063D+02  0.871129D+02  0.706569D+01  0.645600D+01
      2  -0.497433D+02 -0.150908D+02  0.129969D+03 -0.451795D+02 -0.104449D+02
      3   0.136103D+03  0.401953D+01  0.355711D+02 -0.247223D+02 -0.192528D+00
               136           137           138           139           140 
      1   0.454992D+02  0.152823D+03  0.250006D+02 -0.102971D+03  0.629583D+02
      2   0.358132D+03  0.823949D+02 -0.482496D+02 -0.194679D+03  0.901682D+02
      3  -0.227852D+03  0.977071D+02  0.612782D+02  0.715218D+02  0.669039D+01
               141           142           143           144           145 
      1   0.156645D+02  0.633783D+02  0.228074D+02  0.693745D+01 -0.103129D+03
      2   0.350686D+02  0.134022D+03 -0.274989D+02 -0.450751D+01 -0.133029D+02
      3  -0.101298D+02  0.443670D+02 -0.454601D+01 -0.737057D+01 -0.727111D+02
               146           147           148           149           150 
      1   0.329087D+02  0.171536D+02 -0.218875D+03  0.203678D+03  0.676012D+02
      2   0.797146D+02  0.450398D+01 -0.122919D+03  0.280918D+03  0.574452D+02
      3   0.219193D+02  0.116004D+02  0.730134D+02 -0.636939D+02 -0.107026D+02
               151           152           153           154           155 
      1  -0.636752D+02  0.283147D+02  0.799723D+01 -0.129283D+03  0.975610D+02
      2  -0.626479D+02  0.254953D+02  0.184459D+02 -0.623900D+02  0.100531D+03
      3  -0.525844D+02  0.118160D+02 -0.966347D+00 -0.352100D+01 -0.186156D+02
               156           157           158           159           160 
      1   0.330703D+02  0.137884D+03 -0.388823D+02 -0.220492D+02 -0.201493D+03
      2   0.182444D+02  0.152181D+03 -0.570098D+02 -0.231744D+02 -0.155777D+03
      3  -0.219844D+00 -0.143671D+02  0.453610D+02  0.565911D+01 -0.714447D+02
               161           162           163           164           165 
      1   0.109034D+03  0.242425D+02 -0.221013D+03  0.850965D+02  0.377066D+02
      2   0.159391D+03  0.403803D+02 -0.932135D+02  0.180143D+03  0.320592D+02
      3   0.458372D+02  0.535349D+01 -0.118772D+03 -0.736863D+02 -0.145501D-01
               166           167           168           169           170 
      1   0.356777D+02 -0.524235D+02 -0.162671D+02 -0.115656D+03  0.238000D+02
      2   0.259764D+01 -0.429089D+02 -0.676861D+01 -0.134305D+03  0.859103D+02
      3  -0.657034D+02  0.518413D+02  0.977129D+01 -0.312997D+02  0.232450D+02
               171           172           173           174           175 
      1   0.267707D+01  0.127129D+03 -0.403553D+02 -0.208965D+02 -0.290071D+02
      2   0.220109D+02  0.205502D+03 -0.118559D+03 -0.348058D+02 -0.102922D+03
      3  -0.576333D+01 -0.599123D+01  0.306891D+02 -0.194491D+01  0.133672D+02
               176           177           178           179           180 
      1  -0.243817D+02 -0.996309D+00 -0.370208D+02 -0.239775D+02 -0.101450D+02
      2  -0.312319D+02  0.487430D+01 -0.143964D+03  0.111366D+02  0.693704D+01
      3   0.343799D+01 -0.449401D+01  0.159965D+02  0.420890D+02  0.169117D+01
               181           182           183           184           185 
      1   0.131783D+03 -0.139638D+03 -0.361432D+02  0.762966D+02 -0.165276D+03
      2  -0.529902D+02 -0.114152D+03  0.523856D+01 -0.971884D+02 -0.207063D+03
      3   0.226064D+03 -0.789235D+02 -0.511166D+02  0.949095D+02 -0.120516D+02
               186           187           188           189           190 
      1  -0.506802D+02 -0.128856D+03  0.101438D+02  0.756044D+01  0.517024D+02
      2  -0.203523D+02 -0.168045D+03  0.446964D+02  0.142004D+02 -0.227491D+02
      3  -0.312526D+02 -0.973236D+02  0.271880D+02  0.148340D+02  0.144840D+02
               191           192           193           194           195 
      1  -0.608025D+02 -0.199040D+02 -0.762536D+02  0.319812D+02  0.125787D+02
      2  -0.551613D+02 -0.122730D+02 -0.339438D+02  0.341987D+02  0.135415D+02
      3  -0.602923D+01 -0.796716D+01 -0.191692D+01  0.106246D+02 -0.474913D+01
               196           197           198           199           200 
      1  -0.588218D+02  0.412599D+02  0.206502D+02  0.256296D+03 -0.460172D+02
      2  -0.402643D+02  0.914605D+02  0.152726D+02  0.150161D+03 -0.200318D+03
      3  -0.318305D+02  0.477068D+02  0.196554D+02  0.141176D+03 -0.111620D+02
[...]
 -0.00143357,0.00188086,0.00080236,-0.00026645,-0.00016231,0.00014485,-
 0.00007641,0.00005093,0.10614519,-0.30756498,0.04422975,-0.00152265,0.
 00333398,0.00057602,-0.00033391,0.00118267,0.00128685,-0.00033767,0.00
 059022,-0.00021224,-0.00000513,-0.00000206,0.00000574,0.00000634,0.000
 04486,0.00001222,0.00000826,0.00002024,-0.00002194,0.00052979,0.001603
 54,0.00000673,-0.00017275,-0.00016772,0.00009219,-0.00002086,-0.000046
 67,0.00000825,-0.00002596,0.00002606,-0.00000728,-0.00002508,0.0000177
 5,-0.00001513,-0.11455394,0.31636699,0.00083092,-0.00062473,-0.0014950
 6,-0.00053617,0.00047220,0.00032790,-0.00010080,-0.00059755,-0.0001369
 1,0.00027557,0.00028674,0.00009128,-0.00025831,0.00020928,-0.00003770,
 0.00015387,-0.00028717,0.00009785,0.00030033,0.00033412,-0.00010632,-0
 .00025664,-0.00063131,-0.00066555,-0.00003626,0.00035225,-0.00001051,-
 0.00003842,0.00021441,0.00000969,-0.00012015,-0.00002958,-0.00001698,0
 .00009289,0.00001563,-0.00001380,-0.00006702,0.00026601,0.00002245,-0.
 00005329,0.00044117,-0.00014182,-0.00041012,-0.00013398,0.00024424,0.0
 0003020,0.00013055,0.00023665,-0.00000075,-0.00022257,0.00002173,0.000
 05714,-0.00006696,-0.00007308,0.00071759,-0.00015796,0.00006178,-0.000
 20781,0.00052941,-0.00061977,-0.00020099,-0.00011555,-0.00007472,-0.00
 005723,-0.00025411,-0.00001736,0.00002913,-0.00010919,-0.00002651,0.00
 010578,-0.00004832,-0.00001285,-0.00047867,-0.00053368,-0.00305284,-0.
 00020148,0.00009414,-0.00019992,0.00028230,-0.00027769,0.00015577,0.00
 004274,0.00047996,0.00007397,-0.00050689,-0.00050485,-0.00030466,0.000
 61719,0.00029091,0.00017616,-0.00100410,0.00266110,0.00123500,0.000110
 93,0.00164331,0.00738311,0.00008054,0.00001283,0.00058342,0.00003458,0
 .00005850,-0.00008530,-0.02044014,0.04572838,-0.04718045,0.00186768,-0
 .00059777,0.00565649,0.00051709,0.00102902,0.00680115,-0.00005128,-0.0
 0009794,-0.00085801,-0.00000391,-0.00000590,0.00003478,-0.00001806,-0.
 00001872,0.00006804,0.00000768,0.00000628,-0.00004771,0.00075993,-0.00
 017898,0.00137053,-0.00000763,0.00000991,-0.00008383,-0.00003022,-0.00
 006693,0.00000903,0.00002200,-0.00000634,0.00000982,-0.00000693,0.0000
 3070,0.00000093,0.01829744,-0.04891156,0.03571641,-0.00066864,0.000114
 63,-0.00010063,0.00031075,-0.00010033,0.00017598,0.00005895,0.00008145
 ,0.00017876,-0.00020692,-0.00004819,-0.00004888,0.00020184,-0.00006221
 ,0.00003981,-0.00015030,0.00017936,-0.00001923,-0.00003294,-0.00028900
 ,0.00004594,0.00037171,0.00011931,0.00005842,-0.00002469,-0.00001942,-
 0.00002355,0.00003969,0.00002362,-0.00000948,0.00001340,0.00001802,-0.
 00000032,0.00002338,-0.00005199,0.00000593,-0.00001169,0.00004916,-0.0
 0007285,-0.00030983,0.00040067,0.00013689,-0.00030085,-0.00020633,0.00
 031578,0.00000844,0.00013237,-0.00001147,-0.00000051,0.00004827,-0.000
 01229,0.00015335,-0.00003904,0.00014626,0.00063973,-0.00017598,-0.0002
 2534,-0.00013564,-0.00003913,-0.00002330,0.00002843,-0.00005505,0.0000
 3903,-0.00004681,0.00002861,0.00000634,0.00002564,0.00004141,-0.000005
 62,0.00000362,-0.00000503,-0.00000473,0.00041667,-0.00127238,0.0003168
 3,-0.00042868,0.00005108,-0.00000097,-0.00007649,-0.00005116,-0.000023
 65,-0.00003497,-0.00011245,0.00000662,0.00011998,0.00007097,0.00001868
 ,-0.00016279,0.00008407,-0.00008678,-0.00496406,0.00148690,0.00005050,
 -0.00036544,0.00054323,-0.00011598,0.00009599,-0.00001470,-0.00006797,
 -0.00004491,0.00011757,0.00001269,-0.01152577,-0.02354781,0.00358487,-
 0.16224388,-0.13948469,0.02204719,0.01261377,0.01254504,-0.00175772,-0
 .00072005,0.00348792,-0.00011246,-0.00003159,0.00000907,-0.00000448,0.
 00000511,0.00000083,0.00000525,-0.00000724,-0.00000294,0.00000539,-0.0
 0001582,-0.00000850,0.00000373,-0.00000977,-0.00004171,0.00001266,0.00
 000900,0.00000679,0.00000153,0.00000517,-0.00001078,0.00000254,0.00001
 231,-0.00000661,0.00003335,0.00085900,-0.00030441,-0.00012845,0.165540
 99,-0.00017846,-0.00033883,0.00004342,-0.00034487,-0.00039781,-0.00004
 465,0.00008465,0.00038293,0.00009395,-0.00021451,-0.00031125,0.0000872
 0,0.00015130,-0.00003684,0.00001007,-0.00013231,0.00000813,-0.00001396
 ,-0.00026978,-0.00027723,-0.00000288,0.00020888,0.00025800,0.00005062,
 0.00014817,-0.00026322,0.00000274,0.00014510,-0.00010554,0.00001036,0.
 00015610,-0.00003078,0.00000879,0.00015091,0.00015138,-0.00002129,-0.0
 0003519,0.00018399,0.00001803,0.00018360,-0.00013834,0.00062190,-0.000
 11787,0.00066634,-0.00038884,-0.00021140,-0.00024429,0.00000610,-0.000
 04587,-0.00019190,0.00000677,0.00018796,-0.00011354,-0.00012761,-0.000
 45033,0.00022134,0.00011204,0.00047898,0.00011208,-0.00003403,0.000145
 16,0.00021563,0.00004907,-0.00001931,0.00014519,0.00000871,-0.00002799
 ,0.00012872,-0.00001238,-0.00012404,-0.00002239,-0.00000254,0.00035542
 ,0.00043813,-0.00006533,0.00017405,-0.00006070,-0.00003297,-0.00004383
 ,0.00008963,-0.00002603,-0.00002107,-0.00008133,-0.00000954,0.00007023
 ,0.00004066,-0.00001615,-0.00006334,0.00006388,-0.00000334,0.00187662,
 0.00075599,0.00089762,0.00080533,-0.00008570,-0.00006677,-0.00006180,-
 0.00000351,-0.00015352,-0.00002249,-0.00000297,0.00001171,0.00635578,0
 .00890498,-0.00076947,-0.14018378,-0.25004060,0.03200695,-0.01693993,-
 0.01351967,0.00300929,0.00263070,-0.00380005,0.00100199,0.00001073,-0.
 00000154,0.00000619,0.00000135,0.00000017,0.00000403,0.00000652,0.0000
 0272,0.00000144,-0.00001500,0.00001413,0.00000724,0.00004038,0.0000417
 3,0.00001098,0.00001361,0.00003019,-0.00000167,-0.00000681,0.00000089,
 0.00000421,0.00000513,0.00000420,0.00003592,0.00011459,0.00037855,-0.0
 0056895,0.14613890,0.25638390,0.00086026,-0.00019457,-0.00010964,-0.00
 053101,0.00038400,-0.00132642,0.00002229,-0.00041163,0.00024389,0.0004
 4868,0.00031573,-0.00005739,-0.00024265,0.00001643,0.00003968,0.000302
 45,-0.00009426,0.00003199,0.00047504,0.00071387,-0.00000051,-0.0008564
 6,-0.00058498,-0.00015992,-0.00019579,0.00033370,-0.00000403,-0.000109
 32,-0.00005589,-0.00002015,0.00008287,0.00003739,-0.00001333,0.0001299
 6,0.00020400,0.00003929,-0.00005330,0.00044756,-0.00004830,-0.00047810
 ,-0.00020764,-0.00028954,0.00053297,-0.00059808,0.00037455,0.00057262,
 0.00016643,-0.00000278,-0.00011854,-0.00016482,-0.00001751,0.00028308,
 -0.00062559,-0.00004222,0.00009941,0.00084195,-0.00017799,-0.00063273,
 0.00001344,0.00003858,-0.00030715,-0.00032812,-0.00006587,-0.00000907,
 -0.00010768,-0.00002703,-0.00016685,-0.00018792,-0.00000488,-0.0001481
 0,-0.00012116,-0.00000395,-0.00028223,-0.00027141,-0.00005232,-0.00016
 373,0.00016169,-0.00028963,0.00014686,-0.00010614,-0.00001770,0.000022
 34,0.00018230,0.00001636,-0.00013301,-0.00009484,0.00006528,0.00019958
 ,-0.00007042,0.00013431,-0.00002762,0.00084132,0.00743763,0.00020390,0
 .00049068,-0.00093290,-0.00022978,-0.00030340,-0.00086314,0.00002032,-
 0.00003825,0.00007374,-0.00020256,0.00119902,0.00550930,0.02245480,0.0
 3120156,-0.04771850,0.00202400,0.00299048,0.00635312,0.00003233,0.0009
 5163,0.00707089,-0.00000236,-0.00001162,0.00001253,-0.00000932,0.00000
 236,0.00000064,-0.00000629,0.00000863,-0.00000370,0.00002126,0.0000103
 2,-0.00002477,0.00005465,-0.00005177,0.00001089,0.00016867,0.00009854,
 -0.00004975,-0.00000363,-0.00000294,-0.00000815,-0.00000430,-0.0000105
 5,-0.00004137,0.00008298,-0.00090685,-0.00393930,-0.02413236,-0.035334
 01,0.03304569,-0.00028629,0.00015212,0.00008180,0.00010961,-0.00005335
 ,0.00012994,-0.00013843,0.00019033,-0.00004208,-0.00029725,-0.00021783
 ,-0.00004605,0.00016510,-0.00000567,0.00003997,-0.00008664,0.00009664,
 -0.00002599,-0.00008944,-0.00023907,0.00003385,0.00014916,0.00019765,-
 0.00001144,0.00001304,-0.00013413,-0.00000425,0.00006116,-0.00006298,-
 0.00001011,0.00013389,-0.00002630,0.00000128,0.00006058,0.00015659,0.0
 0000477,-0.00008553,0.00012157,0.00049845,-0.00010281,0.00012941,-0.00
 004117,-0.00016515,-0.00007284,-0.00000791,-0.00004579,-0.00009923,-0.
 00000368,0.00011315,-0.00019147,0.00002813,0.00034355,0.00005051,-0.00
 003692,0.00012450,-0.00014749,-0.00000735,0.00009933,0.00002700,-0.000
 00365,0.00007682,0.00003813,0.00005026,-0.00003836,0.00006968,0.000002
 29,-0.00004198,0.00007207,-0.00000625,-0.00014979,-0.00004476,-0.00001
 319,0.00029209,-0.00003767,-0.00003046,-0.00004200,-0.00012377,-0.0000
 0390,0.00000793,0.00000975,0.00001015,-0.00002271,-0.00003511,0.000007
 48,0.00001911,0.00003656,-0.00000545,-0.00004694,0.00009536,-0.0000628
 3,0.00021180,0.00030190,-0.00021023,0.00053232,-0.00282042,0.00106298,
 -0.00017257,0.00039374,-0.00011414,-0.00009423,-0.00011485,0.00009222,
 0.00091913,0.00115390,0.00030914,-0.00295667,-0.00124292,0.00021504,-0
 .35320073,0.04505521,0.00991004,-0.01061920,0.00614499,-0.00042770,-0.
 00000032,-0.00000056,0.00000351,-0.00000033,0.00000015,0.00000334,0.00
 000096,0.00000167,0.00000720,0.00000182,-0.00000428,0.00001071,-0.0000
 0120,-0.00000643,-0.00000584,-0.00006100,-0.00003989,0.00000823,-0.000
 03311,0.00001003,-0.00002809,0.00000627,0.00000458,0.00002294,-0.00012
 933,-0.00013926,0.00002416,0.00041705,-0.00029295,-0.00012411,0.364535
 71,-0.00002341,-0.00003460,-0.00006120,0.00002160,0.00010997,0.0000561
 8,0.00014166,0.00001537,0.00006089,-0.00007032,-0.00009738,-0.00009105
 ,0.00004744,-0.00002384,0.00002086,0.00000074,0.00003394,-0.00001210,-
 0.00008138,-0.00015262,0.00002847,0.00015866,0.00006172,0.00000605,0.0
 0000598,-0.00009663,-0.00000232,0.00002426,-0.00003119,-0.00000947,0.0
 0004804,-0.00002502,-0.00000720,-0.00002612,0.00001478,0.00012572,-0.0
 0021568,-0.00043393,-0.00002360,0.00003490,-0.00003609,-0.00019702,-0.
 00012596,-0.00000732,0.00002258,-0.00011386,-0.00001290,0.00001557,0.0
 0012140,0.00005257,-0.00016802,0.00002397,0.00037555,0.00028631,0.0000
 9243,-0.00009990,-0.00001055,0.00009411,0.00003064,-0.00001492,0.00003
 780,0.00005096,0.00001666,-0.00001500,0.00006404,0.00000458,0.00002230
 ,0.00006657,-0.00000884,-0.00011568,0.00003006,0.00000672,0.00001376,0
 .00010097,-0.00010766,0.00000080,-0.00000005,0.00000072,0.00010048,0.0
 0000272,0.00000781,0.00000264,0.00005526,0.00000975,-0.00005138,0.0000
 3034,-0.00001357,0.00003542,-0.00006776,-0.00001014,-0.00002760,-0.001
 49345,0.00011932,-0.00401765,-0.00395610,0.00232120,-0.00063455,0.0007
 3352,-0.00023844,-0.00011158,-0.00035454,0.00018713,0.00180425,-0.0048
 6038,0.00146944,0.02793404,0.00238608,-0.00086488,0.04741787,-0.066092
 91,0.00078170,-0.02457161,0.00845848,0.00021025,0.00000963,-0.00000234
 ,0.00000142,0.00000114,0.00000720,0.00000211,-0.00000246,0.00000034,-0
 .00000232,-0.00004075,0.00005065,0.00002042,0.00002686,-0.00000054,-0.
 00003203,-0.00008026,-0.00008921,0.00002633,-0.00009997,0.00003310,-0.
 00006164,0.00000608,0.00003662,0.00003538,0.00117964,0.00008067,-0.000
 11450,-0.00034808,0.00093434,-0.00054007,-0.04855607,0.06377710,0.0002
 9895,-0.00021682,-0.00005653,-0.00021654,0.00021257,0.00005433,-0.0000
 7148,-0.00023846,-0.00025491,0.00036242,0.00020486,-0.00006959,-0.0003
 9457,-0.00000320,0.00002507,0.00031000,-0.00022010,0.00001872,0.000096
 97,0.00036756,-0.00004109,-0.00014568,-0.00029222,0.00004641,0.0000377
 3,0.00001868,0.00000678,0.00004527,-0.00014769,-0.00000538,0.00022842,
 0.00002057,0.00000029,0.00029546,0.00019133,0.00006863,-0.00031412,0.0
 0015282,0.00010941,0.00017837,-0.00053415,0.00008305,0.00037694,0.0000
 0067,-0.00000399,0.00002003,0.00014064,-0.00005185,-0.00003727,-0.0006
 1008,-0.00003457,0.00015266,0.00062677,-0.00042867,-0.00026251,0.00037
 091,0.00009860,-0.00023204,0.00005250,0.00000428,-0.00005350,0.0000556
 0,-0.00005194,-0.00003014,0.00002991,-0.00001419,-0.00013544,-0.000018
 39,-0.00003814,-0.00023832,-0.00009686,-0.00003116,-0.00031455,-0.0001
 6951,-0.00073752,-0.00008727,0.00017420,-0.00000388,0.00011983,-0.0000
 8437,0.00005524,0.00002776,0.00018167,0.00000367,-0.00016006,-0.000123
 19,-0.00000537,0.00018581,-0.00008331,0.00004379,0.00020915,-0.0000628
 3,-0.00058984,0.00094850,0.00210871,0.00781941,0.00004822,0.00021932,0
 .00060148,0.00009261,0.00008865,-0.00010367,-0.00056428,0.00121919,0.0
 0621549,-0.00281352,0.00018739,0.00474756,0.00900188,0.00162555,-0.038
 91492,0.00430043,-0.00131381,0.00175707,-0.00000339,-0.00000734,0.0000
 0408,-0.00000847,0.00000265,0.00001134,-0.00000510,0.00000252,-0.00000
 914,0.00001742,-0.00000668,0.00006414,0.00008058,0.00000086,-0.0000534
 5,-0.00001953,-0.00010486,0.00002431,0.00003398,-0.00000765,0.00000885
 ,0.00000706,0.00004599,0.00001334,-0.00013356,-0.00003276,-0.00042448,
 -0.00006478,-0.00052892,-0.00339911,-0.01098128,-0.00261418,0.02732356
 ,0.00000222,0.00011952,-0.00002434,0.00000916,-0.00000440,-0.00005150,
 -0.00013724,-0.00002340,0.00005454,0.00003596,0.00010512,-0.00005623,0
 .00001742,-0.00001742,0.00001403,-0.00009070,0.00006032,0.00001512,-0.
 00000401,0.00000128,0.00002066,-0.00005736,0.00000120,0.00003259,-0.00
 002939,-0.00003383,-0.00000304,0.00002976,-0.00002157,0.00003398,-0.00
 007229,0.00008660,0.00011367,-0.00017678,-0.00009791,-0.00008115,0.000
 20358,0.00011122,-0.00007982,-0.00012484,0.00018421,0.00003695,-0.0001
 1815,-0.00011342,0.00003732,-0.00002234,-0.00005478,0.00001243,0.00005
 548,0.00004737,0.00007075,0.00006067,-0.00024385,-0.00002074,0.0001525
 6,-0.00005192,-0.00001064,0.00004295,0.00000888,-0.00001120,0.00002074
 ,-0.00000707,-0.00000800,0.00000690,0.00005404,-0.00000236,-0.00005023
 ,-0.00002337,0.00000478,0.00025803,-0.00006205,-0.00007000,-0.00009847
 ,0.00144050,-0.00018305,0.00044784,0.00001712,0.00013819,-0.00015460,-
 0.00005791,0.00001089,0.00003743,-0.00008618,-0.00001140,0.00000723,0.
 00016081,0.00001167,-0.00033713,-0.00020701,-0.00001903,-0.00429986,-0
 .00283589,0.00102641,-0.01538007,0.03275779,-0.00473745,0.00019794,0.0
 0306391,-0.00068171,-0.00018483,-0.00011050,-0.00008189,0.00020223,0.0
 0007903,-0.00006321,-0.00324213,-0.00315116,0.00098819,0.01207546,-0.0
 1837331,0.00297480,-0.08703996,0.08413388,-0.01148382,-0.00002601,0.00
 000539,0.00000015,-0.00000119,-0.00001029,-0.00000141,-0.00003237,-0.0
 0000622,0.00000217,0.00000934,0.00000081,-0.00001179,-0.00070464,-0.00
 094184,-0.00003017,0.00000099,-0.00014096,0.00006259,-0.00001541,-0.00
 001024,-0.00000592,0.00004044,-0.00003885,-0.00003940,0.00009068,0.000
 05145,-0.00003593,0.00054627,-0.00081720,-0.00007097,0.00051372,-0.000
 07851,-0.00018906,0.09733498,0.00009140,0.00001214,0.00004669,-0.00006
 252,0.00007937,-0.00006677,-0.00014230,-0.00021718,0.00004567,0.000075
 54,0.00012682,-0.00007275,-0.00000078,-0.00003761,0.00002503,0.0000770
 9,-0.00005831,-0.00001155,0.00009135,0.00016420,-0.00000135,-0.0001493
 0,-0.00016222,-0.00008344,-0.00005714,0.00005585,-0.00000626,-0.000030
 11,-0.00001652,-0.00000771,-0.00003372,0.00002331,0.00003169,-0.000187
 28,-0.00016830,-0.00006839,0.00015939,-0.00009066,-0.00004907,-0.00002
 429,-0.00004845,0.00002207,0.00008483,-0.00005349,0.00000478,0.0000479
 0,0.00004750,-0.00000293,0.00007371,0.00018636,0.00008130,0.00000799,-
 0.00005557,-0.00001070,-0.00002314,0.00006761,0.00001255,-0.00007318,-
 0.00002460,0.00000267,-0.00006041,-0.00004413,-0.00001895,0.00002085,0
 .00001453,0.00000228,-0.00001741,-0.00000484,0.00001267,0.00005704,0.0
 0019762,-0.00002063,-0.00030528,0.00005022,0.00009581,-0.00006234,0.00
 017673,0.00001098,-0.00000532,0.00001853,-0.00000570,-0.00000126,0.000
 01495,-0.00000109,0.00000320,-0.00001554,-0.00000878,-0.00005171,-0.00
 000056,-0.00000511,-0.00109435,0.00251296,0.00054161,-0.00051775,0.000
 20275,0.00030328,-0.00269262,0.00118927,-0.00041162,-0.00009225,0.0001
 1504,0.00012358,-0.00097473,0.00003848,-0.00007780,-0.00252604,-0.0018
 8602,0.00173634,0.00902263,-0.01091770,0.00287692,0.09365577,-0.321929
 95,0.04281678,0.00000182,0.00000532,-0.00000465,0.00000143,-0.00000023
 ,0.00000113,-0.00000024,0.00000099,0.00000535,-0.00000110,-0.00000236,
 0.00000465,-0.00031785,0.00054375,-0.00018046,0.00013719,0.00005934,0.
 00003878,-0.00001918,-0.00001114,0.00001194,0.00002745,0.00001721,-0.0
 0000821,0.00003801,-0.00005995,-0.00013403,0.00051863,-0.00048980,-0.0
 0018842,0.00019978,0.00037515,-0.00078473,-0.09486937,0.32999912,0.000
 14703,-0.00009097,-0.00009291,-0.00008647,0.00018686,0.00010027,-0.000
 09759,-0.00025505,-0.00003198,0.00003359,0.00021395,-0.00006538,-0.000
 01848,-0.00003389,0.00009134,-0.00007179,-0.00000507,0.00005534,0.0000
 8117,0.00003657,-0.00001954,-0.00007678,-0.00002478,0.00002357,-0.0000
 5639,-0.00011170,-0.00000409,0.00015802,-0.00015354,-0.00002586,0.0002
 6767,0.00001769,0.00008741,-0.00011552,0.00007320,0.00028877,-0.000040
 95,-0.00026478,-0.00001344,0.00005621,-0.00019764,-0.00003226,0.000036
 40,-0.00003188,-0.00000718,-0.00001718,-0.00005795,-0.00001928,0.00036
 686,0.00015727,-0.00003457,0.00006192,0.00023483,-0.00001230,-0.000007
 91,0.00007375,0.00004462,-0.00002315,0.00004631,0.00000323,0.00003613,
 0.00004868,-0.00000497,-0.00005703,0.00011191,-0.00000974,-0.00021162,
 0.00007084,-0.00003418,-0.00026064,-0.00022631,-0.00015435,-0.00018181
 ,0.00004751,0.00124239,-0.00009864,0.00001901,-0.00009799,0.00018820,-
 0.00008852,0.00001680,0.00001991,0.00020002,0.00000916,-0.00014020,-0.
 00007863,-0.00007846,0.00006611,-0.00002284,-0.00008817,0.00136914,0.0
 0019957,0.00554789,-0.00107999,-0.00041740,0.00238529,-0.00004540,-0.0
 0074548,-0.00294343,-0.00016397,-0.00020603,0.00005166,0.00044891,0.00
 029817,-0.00083825,0.00034716,0.00205785,0.00684425,-0.00247964,0.0021
 6528,0.00759075,-0.01106546,0.04430338,-0.04726643,0.00000614,-0.00000
 731,-0.00000160,-0.00000878,0.00000445,0.00000613,-0.00000465,0.000010
 17,0.00002279,0.00000139,-0.00000512,0.00003885,0.00037509,-0.00029153
 ,0.00060074,0.00053098,-0.00002506,-0.00020862,-0.00007431,0.00002131,
 -0.00002686,-0.00001992,0.00005118,0.00004020,0.00000443,-0.00014458,-
 0.00076271,-0.00019769,0.00009753,-0.00078658,-0.00030383,-0.00063783,
 -0.00388553,0.01240331,-0.04662342,0.03245520\\-0.00000801,0.00004124,
 -0.00000023,0.00001447,0.00000294,-0.00001193,-0.00000655,-0.00000627,
 0.00000166,0.00000571,-0.00001727,0.00000928,0.00000504,-0.00001459,-0
 .00001779,-0.00001031,-0.00000020,0.00000908,0.00002556,0.00000601,-0.
 00003006,0.00000355,-0.00002981,0.00001642,-0.00002831,-0.00001146,-0.
 00001554,0.00001335,-0.00001892,0.00000607,0.00001917,0.00002184,-0.00
 002233,0.00000029,0.00001315,-0.00000343,-0.00000103,0.00000039,-0.000
 01107,0.00000423,-0.00002532,0.00000042,0.00002362,-0.00004106,-0.0000
 0227,0.00001242,0.00002828,0.00001016,-0.00000873,-0.00000912,0.000009
 43,0.00000484,-0.00001260,0.00000450,-0.00000396,0.00001475,0.00000073
 ,-0.00001513,0.00001118,0.00000339,-0.00001138,-0.00001148,-0.00001554
 ,-0.00000705,0.00003565,0.00000395,0.00000186,0.00002825,0.00001811,-0
 .00001949,-0.00000633,0.00000042,0.00003840,0.00002259,-0.00001144,-0.
 00002367,-0.00002695,0.00001294,-0.00000059,0.00001335,0.00000414,-0.0
 0000583,-0.00000875,-0.00000233,0.00000631,0.00002448,0.00000611,0.000
 01022,-0.00000561,0.00001658,-0.00002843,0.00000573,0.00001002,0.00002
 954,0.00001069,-0.00000324,-0.00002484,-0.00000978,-0.00000922,-0.0000
 6525,0.00001143,-0.00001143,0.00000896,0.00000238,0.00000089,-0.000007
 09,-0.00000577,0.00000260,0.00001416,0.00000021,-0.00000525,-0.0000251
 4,-0.00000695,-0.00000080,-0.00000136,0.00000396,0.00000026,0.00000047
 ,0.00000580,0.00000608,0.00000377,0.00000261,0.00000124,-0.00000256,0.
 00000189,-0.00000966,-0.00000172,0.00000130,-0.00000236,-0.00000080,0.
 00000082,-0.00000069,-0.00000428,-0.00000367,-0.00000553,0.00005495,-0
 .00003393,0.00003116,0.00001142,0.00000117,0.00000735,0.00000100,0.000
 00020,-0.00000193,-0.00000179,-0.00000475,-0.00000247,0.00000001,-0.00
 000170,0.00000351\\\@


 MORNING PEOPLE ARE USUALLY ADMIRED AS EARLY BIRDS.
 RECALL BEN FRANKLIN'S APHORISM THAT THE EARLY BIRD GETS THE WORM.
 I IDENTIFY WITH THE WORM. --  CRAIG JAGGER, MINNEAPOLIS, KS.
 Job cpu time:       1 days  7 hours  7 minutes 14.1 seconds.
 File lengths (MBytes):  RWF=   2878 Int=      0 D2E=      0 Chk=     24 Scr=      1
 Normal termination of Gaussian 09 at Thu May  9 15:35:50 2019.
